
     Program PWSCF v.6.7MaX starts on 13Apr2024 at 10: 1: 2 

     This program is part of the open-source Quantum ESPRESSO suite
     for quantum simulation of materials; please cite
         "P. Giannozzi et al., J. Phys.:Condens. Matter 21 395502 (2009);
         "P. Giannozzi et al., J. Phys.:Condens. Matter 29 465901 (2017);
          URL http://www.quantum-espresso.org", 
     in publications or presentations arising from this work. More details at
     http://www.quantum-espresso.org/quote

     Parallel version (MPI), running on     4 processors

     MPI processes distributed on     1 nodes
     R & G space division:  proc/nbgrp/npool/nimage =       4
     Reading input from pd-dope-relax.in
Warning: card &CELL ignored
Warning: card / ignored

     Current dimensions of program PWSCF are:
     Max number of different atomic species (ntypx) = 10
     Max number of k-points (npk) =  40000
     Max angular momentum in pseudopotentials (lmaxx) =  3
     file Mo.pbe-spn-kjpaw_psl.1.0.0.UPF: wavefunction(s)  4S 4D renormalized
     file S.pbe-n-kjpaw_psl.1.0.0.UPF: wavefunction(s)  3S 3P renormalized
     file Pd.pbe-n-kjpaw_psl.1.0.0.UPF: wavefunction(s)  5S 4D renormalized

     -------------------------------------------------
     Parameters for Dispersion (Grimme-D2) Correction:
     -------------------------------------------------
       atom      VdW radius       C_6     

        Mo         3.097        855.833
        S          3.180        193.230
        Pd         3.097        855.833

     Subspace diagonalization in iterative solution of the eigenvalue problem:
     one sub-group per band group will be used
     scalapack distributed-memory algorithm (size of sub-group:  2*  2 procs)

     Message from routine find_sym:
     Not a group! Trying with lower acceptance parameter...
     Message from routine find_sym:
     Symmetry operations form a group
     Message from routine setup:
     using ibrav=0 with symmetry is DISCOURAGED, use correct ibrav instead

     Parallelization info
     --------------------
     sticks:   dense  smooth     PW     G-vecs:    dense   smooth      PW
     Min        1356    1356    354               329416   329416   44590
     Max        1357    1357    355               329423   329423   44611
     Sum        5425    5425   1417              1317677  1317677  178387



     bravais-lattice index     =            0
     lattice parameter (alat)  =      18.0956  a.u.
     unit-cell volume          =   20985.2853 (a.u.)^3
     number of atoms/cell      =           27
     number of atomic types    =            3
     number of electrons       =       230.00
     number of Kohn-Sham states=          138
     kinetic-energy cutoff     =      60.0000  Ry
     charge density cutoff     =     240.0000  Ry
     scf convergence threshold =      5.4E-09
     mixing beta               =       0.4000
     number of iterations used =            8  plain     mixing
     energy convergence thresh.=      2.7E-04
     force convergence thresh. =      1.0E-04
     Exchange-correlation= SLA  PW   PBX  PBC
                           (   1   4   3   4   0   0   0)
     nstep                     =           50


     celldm(1)=  18.095584  celldm(2)=   0.000000  celldm(3)=   0.000000
     celldm(4)=   0.000000  celldm(5)=   0.000000  celldm(6)=   0.000000

     crystal axes: (cart. coord. in units of alat)
               a(1) = (   1.000000   0.000000   0.000000 )  
               a(2) = (  -0.500000   0.866025   0.000000 )  
               a(3) = (   0.000000  -0.000000   4.089465 )  

     reciprocal axes: (cart. coord. in units 2 pi/alat)
               b(1) = (  1.000000  0.577350  0.000000 )  
               b(2) = ( -0.000000  1.154701  0.000000 )  
               b(3) = (  0.000000 -0.000000  0.244531 )  


     PseudoPot. # 1 for Mo read from file:
     ./pseudo/Mo.pbe-spn-kjpaw_psl.1.0.0.UPF
     MD5 check sum: 4396e0c640fcce5c25f020efccf1ab12
     Pseudo is Projector augmented-wave + core cor, Zval = 14.0
     Generated using &quot;atomic&quot; code by A. Dal Corso  v.6.3
     Shape of augmentation charge: PSQ
     Using radial grid of 1229 points,  6 beta functions with: 
                l(1) =   0
                l(2) =   0
                l(3) =   1
                l(4) =   1
                l(5) =   2
                l(6) =   2
     Q(r) pseudized with 0 coefficients 


     PseudoPot. # 2 for S  read from file:
     ./pseudo/S.pbe-n-kjpaw_psl.1.0.0.UPF
     MD5 check sum: fb45dfebcf3e72a4e1bd4a866ec2e262
     Pseudo is Projector augmented-wave + core cor, Zval =  6.0
     Generated using &quot;atomic&quot; code by A. Dal Corso  v.6.3
     Shape of augmentation charge: PSQ
     Using radial grid of 1151 points,  6 beta functions with: 
                l(1) =   0
                l(2) =   0
                l(3) =   1
                l(4) =   1
                l(5) =   2
                l(6) =   2
     Q(r) pseudized with 0 coefficients 


     PseudoPot. # 3 for Pd read from file:
     ./pseudo/Pd.pbe-n-kjpaw_psl.1.0.0.UPF
     MD5 check sum: a1ee5d3c3f0c030a735988cf39041146
     Pseudo is Projector augmented-wave + core cor, Zval = 10.0
     Generated using &quot;atomic&quot; code by A. Dal Corso  v.6.3
     Shape of augmentation charge: PSQ
     Using radial grid of 1235 points,  6 beta functions with: 
                l(1) =   0
                l(2) =   0
                l(3) =   1
                l(4) =   1
                l(5) =   2
                l(6) =   2
     Q(r) pseudized with 0 coefficients 


     atomic species   valence    mass     pseudopotential
        Mo            14.00    95.96000     Mo( 1.00)
        S              6.00    32.06500     S ( 1.00)
        Pd            10.00   106.42000     Pd( 1.00)

     Starting magnetic structure 
     atomic species   magnetization
        Mo           0.357
        S            0.100
        Pd           0.000

      2 Sym. Ops. (no inversion) found


                                    s                        frac. trans.

      isym =  1     identity                                     

 cryst.   s( 1) = (     1          0          0      )
                  (     0          1          0      )
                  (     0          0          1      )

 cart.    s( 1) = (  1.0000000  0.0000000  0.0000000 )
                  (  0.0000000  1.0000000  0.0000000 )
                  (  0.0000000  0.0000000  1.0000000 )


      isym =  2     inv. 180 deg rotation - cryst. axis [1,1,0]  

 cryst.   s( 2) = (     0         -1          0      )
                  (    -1          0          0      )
                  (     0          0          1      )

 cart.    s( 2) = (  0.5000000 -0.8660254  0.0000000 )
                  ( -0.8660254 -0.5000000  0.0000000 )
                  (  0.0000000  0.0000000  1.0000000 )


   Cartesian axes

     site n.     atom                  positions (alat units)
         1           Mo  tau(   1) = (  -0.0000017   0.1924535   1.7237392  )
         2           S   tau(   2) = (   0.1666677   0.0962276   1.5611179  )
         3           S   tau(   3) = (   0.1666694   0.0962247   1.8863628  )
         4           Mo  tau(   4) = (  -0.1666688   0.4811259   1.7237389  )
         5           S   tau(   5) = (   0.0000000   0.3849026   1.5611162  )
         6           S   tau(   6) = (   0.0000017   0.3848999   1.8863641  )
         7           Mo  tau(   7) = (  -0.3333329   0.7698001   1.7237392  )
         8           S   tau(   8) = (  -0.1666662   0.6735770   1.5611162  )
         9           S   tau(   9) = (  -0.1666644   0.6735740   1.8863641  )
        10           Mo  tau(  10) = (   0.3333344   0.1924526   1.7237392  )
        11           S   tau(  11) = (   0.5000000   0.0962276   1.5611157  )
        12           S   tau(  12) = (   0.5000017   0.0962245   1.8863649  )
        13           Pd  tau(  13) = (   0.1666655   0.4811259   1.7237389  )
        14           S   tau(  14) = (   0.3333339   0.3849018   1.5611157  )
        15           S   tau(  15) = (   0.3333354   0.3848990   1.8863649  )
        16           Mo  tau(  16) = (  -0.0000017   0.7698019   1.7237389  )
        17           S   tau(  17) = (   0.1666662   0.6735770   1.5611162  )
        18           S   tau(  18) = (   0.1666677   0.6735740   1.8863641  )
        19           Mo  tau(  19) = (   0.6666622   0.1924526   1.7237392  )
        20           S   tau(  20) = (   0.8333323   0.0962276   1.5611179  )
        21           S   tau(  21) = (   0.8333340   0.0962247   1.8863628  )
        22           Mo  tau(  22) = (   0.4999983   0.4811230   1.7237392  )
        23           S   tau(  23) = (   0.6666661   0.3849018   1.5611157  )
        24           S   tau(  24) = (   0.6666679   0.3848990   1.8863649  )
        25           Mo  tau(  25) = (   0.3333295   0.7698001   1.7237392  )
        26           S   tau(  26) = (   0.5000000   0.6735760   1.5611179  )
        27           S   tau(  27) = (   0.5000017   0.6735731   1.8863628  )

   Crystallographic axes

     site n.     atom                  positions (cryst. coord.)
         1           Mo  tau(   1) = (  0.1111114  0.2222262  0.4215073  )
         2           S   tau(   2) = (  0.2222247  0.1111140  0.3817414  )
         3           S   tau(   3) = (  0.2222247  0.1111107  0.4612738  )
         4           Mo  tau(   4) = (  0.1111093  0.5555563  0.4215072  )
         5           S   tau(   5) = (  0.2222236  0.4444473  0.3817410  )
         6           S   tau(   6) = (  0.2222237  0.4444441  0.4612741  )
         7           Mo  tau(   7) = (  0.1111114  0.8888886  0.4215073  )
         8           S   tau(   8) = (  0.2222236  0.7777797  0.3817410  )
         9           S   tau(   9) = (  0.2222237  0.7777763  0.4612741  )
        10           Mo  tau(  10) = (  0.4444470  0.2222252  0.4215073  )
        11           S   tau(  11) = (  0.5555570  0.1111140  0.3817408  )
        12           S   tau(  12) = (  0.5555569  0.1111105  0.4612743  )
        13           Pd  tau(  13) = (  0.4444437  0.5555563  0.4215072  )
        14           S   tau(  14) = (  0.5555570  0.4444463  0.3817408  )
        15           S   tau(  15) = (  0.5555569  0.4444431  0.4612743  )
        16           Mo  tau(  16) = (  0.4444437  0.8888907  0.4215072  )
        17           S   tau(  17) = (  0.5555560  0.7777797  0.3817410  )
        18           S   tau(  18) = (  0.5555559  0.7777763  0.4612741  )
        19           Mo  tau(  19) = (  0.7777748  0.2222252  0.4215073  )
        20           S   tau(  20) = (  0.8888893  0.1111140  0.3817414  )
        21           S   tau(  21) = (  0.8888893  0.1111107  0.4612738  )
        22           Mo  tau(  22) = (  0.7777748  0.5555530  0.4215073  )
        23           S   tau(  23) = (  0.8888893  0.4444463  0.3817408  )
        24           S   tau(  24) = (  0.8888895  0.4444431  0.4612743  )
        25           Mo  tau(  25) = (  0.7777738  0.8888886  0.4215073  )
        26           S   tau(  26) = (  0.8888893  0.7777786  0.3817414  )
        27           S   tau(  27) = (  0.8888893  0.7777753  0.4612738  )

     number of k points=     9  Marzari-Vanderbilt smearing, width (Ry)=  0.0147
                       cart. coord. in units 2pi/alat
        k(    1) = (   0.0000000   0.0000000   0.0000000), wk =   0.0400000
        k(    2) = (   0.0000000   0.2309401   0.0000000), wk =   0.1600000
        k(    3) = (   0.0000000   0.4618802   0.0000000), wk =   0.1600000
        k(    4) = (   0.2000000   0.3464102   0.0000000), wk =   0.0800000
        k(    5) = (   0.2000000   0.5773503   0.0000000), wk =   0.1600000
        k(    6) = (   0.2000000  -0.1154701   0.0000000), wk =   0.0800000
        k(    7) = (   0.4000000  -0.2309401   0.0000000), wk =   0.0800000
        k(    8) = (  -0.2000000   0.3464102   0.0000000), wk =   0.1600000
        k(    9) = (   0.4000000  -0.4618802   0.0000000), wk =   0.0800000

                       cryst. coord.
        k(    1) = (   0.0000000   0.0000000   0.0000000), wk =   0.0400000
        k(    2) = (   0.0000000   0.2000000   0.0000000), wk =   0.1600000
        k(    3) = (   0.0000000   0.4000000   0.0000000), wk =   0.1600000
        k(    4) = (   0.2000000   0.2000000   0.0000000), wk =   0.0800000
        k(    5) = (   0.2000000   0.4000000   0.0000000), wk =   0.1600000
        k(    6) = (   0.2000000  -0.2000000   0.0000000), wk =   0.0800000
        k(    7) = (   0.4000000  -0.4000000   0.0000000), wk =   0.0800000
        k(    8) = (  -0.2000000   0.4000000   0.0000000), wk =   0.1600000
        k(    9) = (   0.4000000  -0.6000000   0.0000000), wk =   0.0800000

     Dense  grid:  1317677 G-vectors     FFT dimensions: (  90,  90, 375)

     Dynamical RAM for                 wfc:      86.70 MB

     Dynamical RAM for     wfc (w. buffer):    1647.31 MB

     Dynamical RAM for           str. fact:      15.08 MB

     Dynamical RAM for           local pot:       0.00 MB

     Dynamical RAM for          nlocal pot:     305.34 MB

     Dynamical RAM for                qrad:       3.73 MB

     Dynamical RAM for          rho,v,vnew:      65.01 MB

     Dynamical RAM for               rhoin:      21.67 MB

     Dynamical RAM for            rho*nmix:     160.85 MB

     Dynamical RAM for           G-vectors:      21.36 MB

     Dynamical RAM for          h,s,v(r/c):       0.87 MB

     Dynamical RAM for          <psi|beta>:       1.02 MB

     Dynamical RAM for                 psi:     173.40 MB

     Dynamical RAM for                hpsi:     173.40 MB

     Dynamical RAM for                spsi:     173.40 MB

     Dynamical RAM for      wfcinit/wfcrot:     173.84 MB

     Dynamical RAM for           addusdens:    1030.45 MB

     Dynamical RAM for          addusforce:    1201.49 MB

     Dynamical RAM for         addusstress:    1017.88 MB

     Estimated static dynamical RAM per process >       2.24 GB

     Estimated max dynamical RAM per process >       3.41 GB

     Estimated total dynamical RAM >      13.66 GB

     Atomic positions and unit cell read from directory:
     ./out/mos2.save/
     Message from routine qexsd_readschema :
     xml data file ./out/mos2.save/data-file-schema.xml not found
     Nothing found: using input atomic positions and unit cell

     Generating pointlists ...
     new r_m :   0.1039 (alat units)  1.8807 (a.u.) for type    1
     new r_m :   0.1039 (alat units)  1.8807 (a.u.) for type    2
     new r_m :   0.1039 (alat units)  1.8807 (a.u.) for type    3
     Cannot read rho : file not found

     Initial potential from superposition of free atoms

     starting charge  229.99179, renormalised to  230.00000

     negative rho (up, down):  2.366E-02 1.151E-02
     Message from routine qexsd_readschema :
     xml data file ./out/mos2.save/data-file-schema.xml not found
     Cannot read wfcs: file not found
     Starting wfcs are  161 randomized atomic wfcs
     Checking if some PAW data can be deallocated... 
       PAW data deallocated on    3 nodes for type:  3

     total cpu time spent up to now is      453.1 secs

     Self-consistent Calculation

     iteration #  1     ecut=    60.00 Ry     beta= 0.40
     Davidson diagonalization with overlap
     c_bands:  2 eigenvalues not converged
     c_bands:  5 eigenvalues not converged
     c_bands:  2 eigenvalues not converged
     c_bands:  2 eigenvalues not converged
     c_bands:  1 eigenvalues not converged
     c_bands:  2 eigenvalues not converged
     c_bands:  2 eigenvalues not converged
     c_bands:  1 eigenvalues not converged
     c_bands:  2 eigenvalues not converged
     ethr =  1.00E-05,  avg # of iterations = 18.9

     negative rho (up, down):  2.298E-02 1.544E-02

     total cpu time spent up to now is     4228.7 secs

     total energy              =   -4434.34953765 Ry
     estimated scf accuracy    <       5.67509958 Ry

     total magnetization       =     4.68 Bohr mag/cell
     absolute magnetization    =    11.99 Bohr mag/cell

     iteration #  2     ecut=    60.00 Ry     beta= 0.40
     Davidson diagonalization with overlap
     ethr =  2.47E-03,  avg # of iterations =  4.3

     negative rho (up, down):  2.260E-02 1.608E-02

     total cpu time spent up to now is     5512.6 secs

     total energy              =   -4435.68980541 Ry
     estimated scf accuracy    <      15.63770666 Ry

     total magnetization       =     6.00 Bohr mag/cell
     absolute magnetization    =     9.55 Bohr mag/cell

     iteration #  3     ecut=    60.00 Ry     beta= 0.40
     Davidson diagonalization with overlap
     ethr =  2.47E-03,  avg # of iterations =  2.3

     negative rho (up, down):  2.235E-02 1.702E-02

     total cpu time spent up to now is     6644.5 secs

     total energy              =   -4436.69173739 Ry
     estimated scf accuracy    <       1.77329221 Ry

     total magnetization       =     3.37 Bohr mag/cell
     absolute magnetization    =     8.44 Bohr mag/cell

     iteration #  4     ecut=    60.00 Ry     beta= 0.40
     Davidson diagonalization with overlap
     ethr =  7.71E-04,  avg # of iterations =  2.5

     negative rho (up, down):  2.211E-02 1.935E-02

     total cpu time spent up to now is     7686.2 secs

     total energy              =   -4437.13474335 Ry
     estimated scf accuracy    <       0.65266772 Ry

     total magnetization       =     3.61 Bohr mag/cell
     absolute magnetization    =     8.01 Bohr mag/cell

     iteration #  5     ecut=    60.00 Ry     beta= 0.40
     Davidson diagonalization with overlap
     ethr =  2.84E-04,  avg # of iterations =  4.8

     negative rho (up, down):  2.216E-02 2.075E-02

     total cpu time spent up to now is     8816.5 secs

     total energy              =   -4437.29138787 Ry
     estimated scf accuracy    <       0.74819478 Ry

     total magnetization       =     3.59 Bohr mag/cell
     absolute magnetization    =     6.73 Bohr mag/cell

     iteration #  6     ecut=    60.00 Ry     beta= 0.40
     Davidson diagonalization with overlap
     ethr =  2.84E-04,  avg # of iterations =  2.8

     negative rho (up, down):  2.226E-02 2.150E-02

     total cpu time spent up to now is     9866.5 secs

     total energy              =   -4437.33971627 Ry
     estimated scf accuracy    <       0.22045575 Ry

     total magnetization       =     3.32 Bohr mag/cell
     absolute magnetization    =     5.57 Bohr mag/cell

     iteration #  7     ecut=    60.00 Ry     beta= 0.40
     Davidson diagonalization with overlap
     ethr =  9.59E-05,  avg # of iterations =  3.0

     negative rho (up, down):  2.202E-02 2.168E-02

     total cpu time spent up to now is    10961.2 secs

     total energy              =   -4437.38007356 Ry
     estimated scf accuracy    <       0.03202476 Ry

     total magnetization       =     3.16 Bohr mag/cell
     absolute magnetization    =     4.69 Bohr mag/cell

     iteration #  8     ecut=    60.00 Ry     beta= 0.40
     Davidson diagonalization with overlap
     ethr =  1.39E-05,  avg # of iterations =  8.7

     negative rho (up, down):  2.188E-02 2.168E-02

     total cpu time spent up to now is    12287.9 secs

     total energy              =   -4437.38496861 Ry
     estimated scf accuracy    <       0.04101752 Ry

     total magnetization       =     3.00 Bohr mag/cell
     absolute magnetization    =     4.01 Bohr mag/cell

     iteration #  9     ecut=    60.00 Ry     beta= 0.40
     Davidson diagonalization with overlap
     ethr =  1.39E-05,  avg # of iterations =  1.9

     negative rho (up, down):  2.149E-02 2.160E-02

     total cpu time spent up to now is    13306.5 secs

     total energy              =   -4437.38763394 Ry
     estimated scf accuracy    <       0.00823832 Ry

     total magnetization       =     3.02 Bohr mag/cell
     absolute magnetization    =     3.90 Bohr mag/cell

     iteration # 10     ecut=    60.00 Ry     beta= 0.40
     Davidson diagonalization with overlap
     ethr =  3.58E-06,  avg # of iterations =  7.7

     negative rho (up, down):  2.140E-02 2.161E-02

     total cpu time spent up to now is    14635.8 secs

     total energy              =   -4437.39046058 Ry
     estimated scf accuracy    <       0.00997727 Ry

     total magnetization       =     3.00 Bohr mag/cell
     absolute magnetization    =     3.52 Bohr mag/cell

     iteration # 11     ecut=    60.00 Ry     beta= 0.40
     Davidson diagonalization with overlap
     ethr =  3.58E-06,  avg # of iterations =  2.1

     negative rho (up, down):  2.130E-02 2.160E-02

     total cpu time spent up to now is    15704.9 secs

     total energy              =   -4437.39226422 Ry
     estimated scf accuracy    <       0.00056013 Ry

     total magnetization       =     2.95 Bohr mag/cell
     absolute magnetization    =     3.33 Bohr mag/cell

     iteration # 12     ecut=    60.00 Ry     beta= 0.40
     Davidson diagonalization with overlap
     ethr =  2.44E-07,  avg # of iterations =  7.2

     negative rho (up, down):  2.127E-02 2.161E-02

     total cpu time spent up to now is    17140.3 secs

     total energy              =   -4437.39256683 Ry
     estimated scf accuracy    <       0.00049970 Ry

     total magnetization       =     2.94 Bohr mag/cell
     absolute magnetization    =     3.19 Bohr mag/cell

     iteration # 13     ecut=    60.00 Ry     beta= 0.40
     Davidson diagonalization with overlap
     ethr =  2.17E-07,  avg # of iterations =  2.0

     negative rho (up, down):  2.121E-02 2.163E-02

     total cpu time spent up to now is    18188.9 secs

     total energy              =   -4437.39276523 Ry
     estimated scf accuracy    <       0.00015022 Ry

     total magnetization       =     2.93 Bohr mag/cell
     absolute magnetization    =     3.15 Bohr mag/cell

     iteration # 14     ecut=    60.00 Ry     beta= 0.40
     Davidson diagonalization with overlap
     ethr =  6.53E-08,  avg # of iterations =  4.4

     negative rho (up, down):  2.119E-02 2.164E-02

     total cpu time spent up to now is    19676.1 secs

     total energy              =   -4437.39285722 Ry
     estimated scf accuracy    <       0.00006584 Ry

     total magnetization       =     2.91 Bohr mag/cell
     absolute magnetization    =     3.08 Bohr mag/cell

     iteration # 15     ecut=    60.00 Ry     beta= 0.40
     Davidson diagonalization with overlap
     ethr =  2.86E-08,  avg # of iterations =  2.7

     negative rho (up, down):  2.117E-02 2.166E-02

     total cpu time spent up to now is    21156.3 secs

     total energy              =   -4437.39289203 Ry
     estimated scf accuracy    <       0.00004091 Ry

     total magnetization       =     2.90 Bohr mag/cell
     absolute magnetization    =     3.05 Bohr mag/cell

     iteration # 16     ecut=    60.00 Ry     beta= 0.40
     Davidson diagonalization with overlap
     ethr =  1.78E-08,  avg # of iterations =  3.3

     negative rho (up, down):  2.116E-02 2.168E-02

     total cpu time spent up to now is    22409.7 secs

     total energy              =   -4437.39291410 Ry
     estimated scf accuracy    <       0.00001442 Ry

     total magnetization       =     2.89 Bohr mag/cell
     absolute magnetization    =     3.03 Bohr mag/cell

     iteration # 17     ecut=    60.00 Ry     beta= 0.40
     Davidson diagonalization with overlap
     ethr =  6.27E-09,  avg # of iterations =  5.3

     negative rho (up, down):  2.115E-02 2.169E-02

     total cpu time spent up to now is    23930.8 secs

     total energy              =   -4437.39292572 Ry
     estimated scf accuracy    <       0.00000738 Ry

     total magnetization       =     2.87 Bohr mag/cell
     absolute magnetization    =     3.00 Bohr mag/cell

     iteration # 18     ecut=    60.00 Ry     beta= 0.40
     Davidson diagonalization with overlap
     ethr =  3.21E-09,  avg # of iterations =  2.5

     negative rho (up, down):  2.114E-02 2.170E-02

     total cpu time spent up to now is    25178.7 secs

     total energy              =   -4437.39293104 Ry
     estimated scf accuracy    <       0.00000443 Ry

     total magnetization       =     2.86 Bohr mag/cell
     absolute magnetization    =     2.99 Bohr mag/cell

     iteration # 19     ecut=    60.00 Ry     beta= 0.40
     Davidson diagonalization with overlap
     ethr =  1.93E-09,  avg # of iterations =  3.3

     negative rho (up, down):  2.114E-02 2.171E-02

     total cpu time spent up to now is    26558.3 secs

     total energy              =   -4437.39293404 Ry
     estimated scf accuracy    <       0.00000287 Ry

     total magnetization       =     2.85 Bohr mag/cell
     absolute magnetization    =     2.98 Bohr mag/cell

     iteration # 20     ecut=    60.00 Ry     beta= 0.40
     Davidson diagonalization with overlap
     ethr =  1.25E-09,  avg # of iterations =  2.5

     negative rho (up, down):  2.113E-02 2.172E-02

     total cpu time spent up to now is    27751.2 secs

     total energy              =   -4437.39293652 Ry
     estimated scf accuracy    <       0.00000094 Ry

     total magnetization       =     2.85 Bohr mag/cell
     absolute magnetization    =     2.97 Bohr mag/cell

     iteration # 21     ecut=    60.00 Ry     beta= 0.40
     Davidson diagonalization with overlap
     ethr =  4.11E-10,  avg # of iterations =  5.1

     negative rho (up, down):  2.113E-02 2.172E-02

     total cpu time spent up to now is    29271.2 secs

     total energy              =   -4437.39293801 Ry
     estimated scf accuracy    <       0.00000080 Ry

     total magnetization       =     2.84 Bohr mag/cell
     absolute magnetization    =     2.96 Bohr mag/cell

     iteration # 22     ecut=    60.00 Ry     beta= 0.40
     Davidson diagonalization with overlap
     ethr =  3.48E-10,  avg # of iterations =  3.9

     negative rho (up, down):  2.113E-02 2.172E-02

     total cpu time spent up to now is    30648.2 secs

     total energy              =   -4437.39293891 Ry
     estimated scf accuracy    <       0.00000120 Ry

     total magnetization       =     2.83 Bohr mag/cell
     absolute magnetization    =     2.95 Bohr mag/cell

     iteration # 23     ecut=    60.00 Ry     beta= 0.40
     Davidson diagonalization with overlap
     ethr =  3.48E-10,  avg # of iterations =  2.2

     negative rho (up, down):  2.112E-02 2.172E-02

     total cpu time spent up to now is    31889.8 secs

     total energy              =   -4437.39293945 Ry
     estimated scf accuracy    <       0.00000053 Ry

     total magnetization       =     2.82 Bohr mag/cell
     absolute magnetization    =     2.95 Bohr mag/cell

     iteration # 24     ecut=    60.00 Ry     beta= 0.40
     Davidson diagonalization with overlap
     ethr =  2.29E-10,  avg # of iterations =  2.6

     negative rho (up, down):  2.112E-02 2.172E-02

     total cpu time spent up to now is    33175.3 secs

     total energy              =   -4437.39293994 Ry
     estimated scf accuracy    <       0.00000029 Ry

     total magnetization       =     2.82 Bohr mag/cell
     absolute magnetization    =     2.94 Bohr mag/cell

     iteration # 25     ecut=    60.00 Ry     beta= 0.40
     Davidson diagonalization with overlap
     ethr =  1.27E-10,  avg # of iterations =  3.7

     negative rho (up, down):  2.112E-02 2.172E-02

     total cpu time spent up to now is    34530.2 secs

     total energy              =   -4437.39294019 Ry
     estimated scf accuracy    <       0.00000036 Ry

     total magnetization       =     2.81 Bohr mag/cell
     absolute magnetization    =     2.93 Bohr mag/cell

     iteration # 26     ecut=    60.00 Ry     beta= 0.40
     Davidson diagonalization with overlap
     ethr =  1.27E-10,  avg # of iterations =  2.0

     negative rho (up, down):  2.112E-02 2.172E-02

     total cpu time spent up to now is    35723.2 secs

     total energy              =   -4437.39294036 Ry
     estimated scf accuracy    <       0.00000030 Ry

     total magnetization       =     2.81 Bohr mag/cell
     absolute magnetization    =     2.93 Bohr mag/cell

     iteration # 27     ecut=    60.00 Ry     beta= 0.40
     Davidson diagonalization with overlap
     ethr =  1.27E-10,  avg # of iterations =  2.2

     negative rho (up, down):  2.112E-02 2.171E-02

     total cpu time spent up to now is    36897.7 secs

     total energy              =   -4437.39294053 Ry
     estimated scf accuracy    <       0.00000011 Ry

     total magnetization       =     2.81 Bohr mag/cell
     absolute magnetization    =     2.93 Bohr mag/cell

     iteration # 28     ecut=    60.00 Ry     beta= 0.40
     Davidson diagonalization with overlap
     ethr =  4.66E-11,  avg # of iterations =  5.7

     negative rho (up, down):  2.112E-02 2.171E-02

     total cpu time spent up to now is    38547.0 secs

     total energy              =   -4437.39294087 Ry
     estimated scf accuracy    <       0.00000012 Ry

     total magnetization       =     2.80 Bohr mag/cell
     absolute magnetization    =     2.92 Bohr mag/cell

     iteration # 29     ecut=    60.00 Ry     beta= 0.40
     Davidson diagonalization with overlap
     ethr =  4.66E-11,  avg # of iterations =  3.3

     negative rho (up, down):  2.113E-02 2.171E-02

     total cpu time spent up to now is    39794.6 secs

     total energy              =   -4437.39294098 Ry
     estimated scf accuracy    <       0.00000005 Ry

     total magnetization       =     2.79 Bohr mag/cell
     absolute magnetization    =     2.91 Bohr mag/cell

     iteration # 30     ecut=    60.00 Ry     beta= 0.40
     Davidson diagonalization with overlap
     ethr =  2.20E-11,  avg # of iterations =  5.2

     negative rho (up, down):  2.113E-02 2.171E-02

     total cpu time spent up to now is    41118.8 secs

     total energy              =   -4437.39294102 Ry
     estimated scf accuracy    <       0.00000004 Ry

     total magnetization       =     2.79 Bohr mag/cell
     absolute magnetization    =     2.91 Bohr mag/cell

     iteration # 31     ecut=    60.00 Ry     beta= 0.40
     Davidson diagonalization with overlap
     ethr =  1.94E-11,  avg # of iterations =  3.2

     negative rho (up, down):  2.113E-02 2.171E-02

     total cpu time spent up to now is    42376.2 secs

     total energy              =   -4437.39294106 Ry
     estimated scf accuracy    <       0.00000003 Ry

     total magnetization       =     2.79 Bohr mag/cell
     absolute magnetization    =     2.91 Bohr mag/cell

     iteration # 32     ecut=    60.00 Ry     beta= 0.40
     Davidson diagonalization with overlap
     ethr =  1.10E-11,  avg # of iterations =  5.6

     negative rho (up, down):  2.113E-02 2.171E-02

     Magnetic moment per site:
     atom:    1    charge:   10.7467    magn:    0.1502    constr:    0.0000
     atom:    2    charge:    4.1491    magn:   -0.0004    constr:    0.0000
     atom:    3    charge:    4.1486    magn:   -0.0004    constr:    0.0000
     atom:    4    charge:   10.7467    magn:    0.1502    constr:    0.0000
     atom:    5    charge:    4.1145    magn:    0.1052    constr:    0.0000
     atom:    6    charge:    4.1140    magn:    0.1052    constr:    0.0000
     atom:    7    charge:   10.7488    magn:    0.0074    constr:    0.0000
     atom:    8    charge:    4.1491    magn:   -0.0004    constr:    0.0000
     atom:    9    charge:    4.1486    magn:   -0.0004    constr:    0.0000
     atom:   10    charge:   10.7467    magn:    0.1502    constr:    0.0000
     atom:   11    charge:    4.1475    magn:    0.0073    constr:    0.0000
     atom:   12    charge:    4.1470    magn:    0.0073    constr:    0.0000
     atom:   13    charge:    7.5976    magn:    0.4747    constr:    0.0000
     atom:   14    charge:    4.1145    magn:    0.1052    constr:    0.0000
     atom:   15    charge:    4.1140    magn:    0.1052    constr:    0.0000
     atom:   16    charge:   10.7467    magn:    0.1502    constr:    0.0000
     atom:   17    charge:    4.1145    magn:    0.1052    constr:    0.0000
     atom:   18    charge:    4.1140    magn:    0.1052    constr:    0.0000
     atom:   19    charge:   10.7470    magn:    0.0199    constr:    0.0000
     atom:   20    charge:    4.1475    magn:    0.0073    constr:    0.0000
     atom:   21    charge:    4.1470    magn:    0.0073    constr:    0.0000
     atom:   22    charge:   10.7467    magn:    0.1502    constr:    0.0000
     atom:   23    charge:    4.1475    magn:    0.0073    constr:    0.0000
     atom:   24    charge:    4.1470    magn:    0.0073    constr:    0.0000
     atom:   25    charge:   10.7467    magn:    0.1502    constr:    0.0000
     atom:   26    charge:    4.1491    magn:   -0.0004    constr:    0.0000
     atom:   27    charge:    4.1486    magn:   -0.0004    constr:    0.0000

     total cpu time spent up to now is    43749.5 secs

     End of self-consistent calculation

 ------ SPIN UP ------------


          k = 0.0000 0.0000 0.0000 (164823 PWs)   bands (ev):

   -64.4165 -64.4004 -64.4004 -64.4003 -64.4003 -64.3866 -64.3245 -64.3213
   -38.6871 -38.6582 -38.6582 -38.6136 -38.6136 -38.6115 -38.5679 -38.5678
   -38.5430 -38.5290 -38.5290 -38.5076 -38.5075 -38.5075 -38.5075 -38.4803
   -38.4777 -38.4253 -38.4153 -38.4024 -38.3925 -38.3924 -38.3457 -38.3457
   -17.5879 -16.3415 -16.3405 -16.3405 -16.2922 -16.2747 -16.2747 -16.2744
   -15.8093 -15.7326 -15.7326 -15.7293 -15.7266 -15.7266 -15.4976 -15.4975
   -15.3671 -15.3671  -9.1818  -9.0293  -9.0293  -8.9344  -8.9344  -8.8892
    -8.7567  -8.7302  -8.7302  -8.2263  -8.0549  -8.0330  -8.0329  -7.7384
    -7.6739  -7.6415  -7.6415  -7.6393  -7.6186  -7.6186  -7.4656  -7.4510
    -7.4509  -7.4099  -7.4098  -7.2053  -7.2053  -6.9732  -6.9731  -6.5397
    -6.5396  -6.4555  -6.3665  -6.3509  -6.3428  -6.3427  -6.3272  -5.8737
    -5.7136  -5.7136  -5.5210  -5.5210  -5.2816  -5.2815  -5.2728  -5.1707
    -5.0749  -5.0725  -5.0724  -5.0521  -5.0520  -4.9500  -4.9499  -4.9181
    -4.8613  -4.7417  -4.7417  -4.4787  -4.4618  -4.4618  -3.8202  -3.8201
    -3.7141  -2.9039  -2.5441  -2.5441  -2.3493  -2.3492  -1.9255  -1.5211
    -1.3622  -1.3221  -1.3221  -1.3135  -1.2109  -1.2109  -1.1977  -1.1977
    -1.1690  -0.6685  -0.6683  -0.5733  -0.5732  -0.3143  -0.3143  -0.1696
    -0.1462  -0.1462

     occupation numbers 
     1.0000   1.0000   1.0000   1.0000   1.0000   1.0000   1.0000   1.0000
     1.0000   1.0000   1.0000   1.0000   1.0000   1.0000   1.0000   1.0000
     1.0000   1.0000   1.0000   1.0000   1.0000   1.0000   1.0000   1.0000
     1.0000   1.0000   1.0000   1.0000   1.0000   1.0000   1.0000   1.0000
     1.0000   1.0000   1.0000   1.0000   1.0000   1.0000   1.0000   1.0000
     1.0000   1.0000   1.0000   1.0000   1.0000   1.0000   1.0000   1.0000
     1.0000   1.0000   1.0000   1.0000   1.0000   1.0000   1.0000   1.0000
     1.0000   1.0000   1.0000   1.0000   1.0000   1.0000   1.0000   1.0000
     1.0000   1.0000   1.0000   1.0000   1.0000   1.0000   1.0000   1.0000
     1.0000   1.0000   1.0000   1.0000   1.0000   1.0000   1.0000   1.0000
     1.0000   1.0000   1.0000   1.0000   1.0000   1.0000   1.0000   1.0000
     1.0000   1.0000   1.0000   1.0000   1.0000   1.0000   1.0000   1.0000
     1.0000   1.0000   1.0000   1.0000   1.0000   1.0000   1.0000   1.0000
     1.0000   1.0000   1.0000   1.0000   1.0000   1.0000   1.0000   1.0000
     1.0000   1.0488   0.4844   0.4842   0.0482   0.0481   0.0000   0.0000
     0.0000   0.0000   0.0000   0.0000   0.0000   0.0000   0.0000   0.0000
     0.0000   0.0000   0.0000   0.0000   0.0000   0.0000   0.0000   0.0000
     0.0000   0.0000

          k = 0.0000 0.2309 0.0000 (164675 PWs)   bands (ev):

   -64.4155 -64.4041 -64.4031 -64.3976 -64.3967 -64.3874 -64.3243 -64.3214
   -38.6985 -38.6658 -38.6593 -38.6448 -38.6192 -38.5835 -38.5557 -38.5491
   -38.5407 -38.5165 -38.5154 -38.5133 -38.5131 -38.5024 -38.5003 -38.4818
   -38.4810 -38.4245 -38.4157 -38.4091 -38.3985 -38.3915 -38.3584 -38.3480
   -17.5236 -16.6898 -16.4658 -16.4583 -16.2657 -16.1105 -16.1005 -15.9739
   -15.9095 -15.8164 -15.7884 -15.6635 -15.6478 -15.6077 -15.5463 -15.5455
   -15.3937 -15.3925  -9.1403  -9.1025  -8.9554  -8.9523  -8.9400  -8.9239
    -8.7324  -8.6705  -8.5657  -8.4507  -8.3835  -8.1531  -8.1179  -7.9506
    -7.7126  -7.6912  -7.5919  -7.5463  -7.5280  -7.4940  -7.3912  -7.3846
    -7.3549  -7.3404  -7.2900  -7.0073  -6.9909  -6.9400  -6.9309  -6.5936
    -6.5519  -6.5507  -6.4808  -6.4754  -6.4437  -6.4297  -6.1729  -5.9130
    -5.7368  -5.6026  -5.5870  -5.5839  -5.5578  -5.3083  -5.2925  -5.2519
    -5.1465  -5.0945  -5.0677  -5.0657  -4.9847  -4.8507  -4.8469  -4.8258
    -4.7735  -4.7591  -4.6267  -4.3824  -4.3444  -4.3216  -3.9064  -3.8755
    -3.7033  -2.8382  -2.6473  -2.5502  -2.4950  -2.3479  -1.7433  -1.4908
    -1.4206  -1.3666  -1.3642  -1.2650  -1.2538  -1.1589  -1.1512  -1.1110
    -1.0176  -0.7678  -0.7383  -0.6416  -0.5786  -0.4816  -0.3998  -0.3889
    -0.3063  -0.3025

     occupation numbers 
     1.0000   1.0000   1.0000   1.0000   1.0000   1.0000   1.0000   1.0000
     1.0000   1.0000   1.0000   1.0000   1.0000   1.0000   1.0000   1.0000
     1.0000   1.0000   1.0000   1.0000   1.0000   1.0000   1.0000   1.0000
     1.0000   1.0000   1.0000   1.0000   1.0000   1.0000   1.0000   1.0000
     1.0000   1.0000   1.0000   1.0000   1.0000   1.0000   1.0000   1.0000
     1.0000   1.0000   1.0000   1.0000   1.0000   1.0000   1.0000   1.0000
     1.0000   1.0000   1.0000   1.0000   1.0000   1.0000   1.0000   1.0000
     1.0000   1.0000   1.0000   1.0000   1.0000   1.0000   1.0000   1.0000
     1.0000   1.0000   1.0000   1.0000   1.0000   1.0000   1.0000   1.0000
     1.0000   1.0000   1.0000   1.0000   1.0000   1.0000   1.0000   1.0000
     1.0000   1.0000   1.0000   1.0000   1.0000   1.0000   1.0000   1.0000
     1.0000   1.0000   1.0000   1.0000   1.0000   1.0000   1.0000   1.0000
     1.0000   1.0000   1.0000   1.0000   1.0000   1.0000   1.0000   1.0000
     1.0000   1.0000   1.0000   1.0000   1.0000   1.0000   1.0000   1.0000
     1.0000   1.0771   0.8556   0.5068   0.3177   0.0471   0.0000   0.0000
     0.0000   0.0000   0.0000   0.0000   0.0000   0.0000   0.0000   0.0000
     0.0000   0.0000   0.0000   0.0000   0.0000   0.0000   0.0000   0.0000
     0.0000   0.0000

          k = 0.0000 0.4619 0.0000 (164688 PWs)   bands (ev):

   -64.4126 -64.4084 -64.4047 -64.3963 -64.3930 -64.3896 -64.3238 -64.3217
   -38.7139 -38.6759 -38.6649 -38.6574 -38.6264 -38.5723 -38.5367 -38.5345
   -38.5273 -38.5247 -38.5162 -38.5000 -38.4968 -38.4928 -38.4863 -38.4851
   -38.4688 -38.4251 -38.4230 -38.4164 -38.4132 -38.3890 -38.3876 -38.3520
   -17.3376 -17.0467 -16.5477 -16.5410 -16.1931 -16.0493 -15.8933 -15.8840
   -15.8508 -15.8187 -15.7815 -15.6790 -15.6784 -15.5654 -15.5530 -15.5322
   -15.4647 -15.4607  -9.2945  -8.9734  -8.9203  -8.9202  -8.7858  -8.7762
    -8.7438  -8.7067  -8.6653  -8.5676  -8.5000  -8.3386  -8.2950  -8.2257
    -7.7726  -7.6855  -7.6077  -7.5672  -7.4744  -7.3545  -7.3406  -7.3344
    -7.3187  -7.1896  -7.0917  -7.0156  -6.8560  -6.7131  -6.6871  -6.6485
    -6.6386  -6.6196  -6.6110  -6.4063  -6.3856  -6.2329  -6.1870  -6.0121
    -5.9910  -5.7291  -5.7155  -5.5808  -5.5435  -5.4854  -5.4095  -5.3260
    -5.2968  -5.2356  -5.1581  -5.1455  -4.8685  -4.8197  -4.7315  -4.6122
    -4.5652  -4.5552  -4.5160  -4.2104  -4.1992  -4.1293  -3.9795  -3.9496
    -3.7538  -2.7689  -2.7578  -2.7574  -2.5220  -2.3468  -1.5064  -1.5057
    -1.4442  -1.3279  -1.3125  -1.1745  -1.1581  -1.1100  -1.0681  -1.0025
    -0.9825  -0.9148  -0.8816  -0.8128  -0.7988  -0.7227  -0.6531  -0.6427
    -0.3857  -0.3017

     occupation numbers 
     1.0000   1.0000   1.0000   1.0000   1.0000   1.0000   1.0000   1.0000
     1.0000   1.0000   1.0000   1.0000   1.0000   1.0000   1.0000   1.0000
     1.0000   1.0000   1.0000   1.0000   1.0000   1.0000   1.0000   1.0000
     1.0000   1.0000   1.0000   1.0000   1.0000   1.0000   1.0000   1.0000
     1.0000   1.0000   1.0000   1.0000   1.0000   1.0000   1.0000   1.0000
     1.0000   1.0000   1.0000   1.0000   1.0000   1.0000   1.0000   1.0000
     1.0000   1.0000   1.0000   1.0000   1.0000   1.0000   1.0000   1.0000
     1.0000   1.0000   1.0000   1.0000   1.0000   1.0000   1.0000   1.0000
     1.0000   1.0000   1.0000   1.0000   1.0000   1.0000   1.0000   1.0000
     1.0000   1.0000   1.0000   1.0000   1.0000   1.0000   1.0000   1.0000
     1.0000   1.0000   1.0000   1.0000   1.0000   1.0000   1.0000   1.0000
     1.0000   1.0000   1.0000   1.0000   1.0000   1.0000   1.0000   1.0000
     1.0000   1.0000   1.0000   1.0000   1.0000   1.0000   1.0000   1.0000
     1.0000   1.0000   1.0000   1.0000   1.0000   1.0000   1.0000   1.0000
     1.0000   1.0750   1.0682   1.0678   0.4057   0.0463   0.0000   0.0000
     0.0000   0.0000   0.0000   0.0000   0.0000   0.0000   0.0000   0.0000
     0.0000   0.0000   0.0000   0.0000   0.0000   0.0000   0.0000   0.0000
     0.0000   0.0000

          k = 0.2000 0.3464 0.0000 (164666 PWs)   bands (ev):

   -64.4135 -64.4062 -64.4058 -64.3951 -64.3950 -64.3889 -64.3239 -64.3216
   -38.7091 -38.6840 -38.6565 -38.6509 -38.6296 -38.5760 -38.5365 -38.5364
   -38.5308 -38.5201 -38.5186 -38.4991 -38.4974 -38.4970 -38.4851 -38.4849
   -38.4833 -38.4243 -38.4233 -38.4163 -38.4023 -38.3966 -38.3752 -38.3530
   -17.3984 -16.8506 -16.8164 -16.2154 -16.2081 -16.1710 -15.9833 -15.9377
   -15.8577 -15.8191 -15.6961 -15.6744 -15.6743 -15.5984 -15.5548 -15.5443
   -15.4547 -15.4267  -9.2125  -9.1151  -8.9779  -8.8366  -8.8344  -8.7634
    -8.7620  -8.6708  -8.6513  -8.5546  -8.5202  -8.3268  -8.2421  -8.0277
    -7.8268  -7.7426  -7.6523  -7.6093  -7.4085  -7.3994  -7.3711  -7.3060
    -7.2903  -7.1901  -7.1871  -6.8742  -6.8151  -6.7947  -6.7633  -6.6869
    -6.6796  -6.6545  -6.5788  -6.3750  -6.3574  -6.3061  -6.1509  -6.0311
    -6.0104  -5.7629  -5.6501  -5.6027  -5.5235  -5.4404  -5.3323  -5.3213
    -5.3062  -5.2499  -5.0621  -4.9272  -4.8686  -4.8562  -4.7845  -4.7406
    -4.6688  -4.5977  -4.5687  -4.2685  -4.1597  -4.1342  -4.0242  -3.9113
    -3.7297  -2.7725  -2.7258  -2.7030  -2.5437  -2.3493  -1.5318  -1.4499
    -1.4142  -1.3992  -1.3785  -1.2036  -1.1840  -1.1362  -1.0729  -1.0271
    -0.9608  -0.9184  -0.9042  -0.8002  -0.7640  -0.6143  -0.5543  -0.4831
    -0.4249  -0.4072

     occupation numbers 
     1.0000   1.0000   1.0000   1.0000   1.0000   1.0000   1.0000   1.0000
     1.0000   1.0000   1.0000   1.0000   1.0000   1.0000   1.0000   1.0000
     1.0000   1.0000   1.0000   1.0000   1.0000   1.0000   1.0000   1.0000
     1.0000   1.0000   1.0000   1.0000   1.0000   1.0000   1.0000   1.0000
     1.0000   1.0000   1.0000   1.0000   1.0000   1.0000   1.0000   1.0000
     1.0000   1.0000   1.0000   1.0000   1.0000   1.0000   1.0000   1.0000
     1.0000   1.0000   1.0000   1.0000   1.0000   1.0000   1.0000   1.0000
     1.0000   1.0000   1.0000   1.0000   1.0000   1.0000   1.0000   1.0000
     1.0000   1.0000   1.0000   1.0000   1.0000   1.0000   1.0000   1.0000
     1.0000   1.0000   1.0000   1.0000   1.0000   1.0000   1.0000   1.0000
     1.0000   1.0000   1.0000   1.0000   1.0000   1.0000   1.0000   1.0000
     1.0000   1.0000   1.0000   1.0000   1.0000   1.0000   1.0000   1.0000
     1.0000   1.0000   1.0000   1.0000   1.0000   1.0000   1.0000   1.0000
     1.0000   1.0000   1.0000   1.0000   1.0000   1.0000   1.0000   1.0000
     1.0000   1.0767   1.0345   0.9968   0.4830   0.0482   0.0000   0.0000
     0.0000   0.0000   0.0000   0.0000   0.0000   0.0000   0.0000   0.0000
     0.0000   0.0000   0.0000   0.0000   0.0000   0.0000   0.0000   0.0000
     0.0000   0.0000

          k = 0.2000 0.5774 0.0000 (164736 PWs)   bands (ev):

   -64.4106 -64.4096 -64.4067 -64.3944 -64.3917 -64.3917 -64.3237 -64.3218
   -38.7140 -38.6935 -38.6593 -38.6495 -38.6350 -38.5732 -38.5303 -38.5271
   -38.5263 -38.5205 -38.5189 -38.4988 -38.4961 -38.4904 -38.4903 -38.4702
   -38.4537 -38.4378 -38.4246 -38.4224 -38.4167 -38.3995 -38.3808 -38.3574
   -17.1761 -17.1440 -16.8826 -16.2208 -16.1487 -16.0698 -15.9742 -15.9295
   -15.8941 -15.7514 -15.6995 -15.6955 -15.6835 -15.5674 -15.5564 -15.5102
   -15.4853 -15.4811  -9.2641  -9.0733  -8.9982  -8.8207  -8.7903  -8.7352
    -8.7314  -8.6657  -8.6227  -8.5511  -8.5275  -8.4486  -8.3388  -8.1866
    -7.8642  -7.7902  -7.6660  -7.6226  -7.3674  -7.3168  -7.3006  -7.2703
    -7.2508  -7.1809  -7.1126  -7.0014  -6.7916  -6.7475  -6.7067  -6.6930
    -6.6648  -6.5106  -6.4259  -6.4160  -6.3758  -6.2700  -6.1797  -6.0159
    -5.9661  -5.8418  -5.7609  -5.6445  -5.6163  -5.5493  -5.3997  -5.3622
    -5.3534  -5.2342  -5.0618  -5.0095  -4.9427  -4.7876  -4.7667  -4.7563
    -4.5247  -4.4751  -4.4342  -4.2067  -4.1175  -4.0303  -3.9871  -3.8936
    -3.8215  -2.8500  -2.7582  -2.7339  -2.5318  -2.3503  -1.4597  -1.4133
    -1.3751  -1.3378  -1.2688  -1.2406  -1.1553  -1.1158  -1.0582  -1.0373
    -1.0007  -0.9898  -0.9471  -0.9209  -0.8493  -0.7705  -0.6880  -0.6763
    -0.4737  -0.2839

     occupation numbers 
     1.0000   1.0000   1.0000   1.0000   1.0000   1.0000   1.0000   1.0000
     1.0000   1.0000   1.0000   1.0000   1.0000   1.0000   1.0000   1.0000
     1.0000   1.0000   1.0000   1.0000   1.0000   1.0000   1.0000   1.0000
     1.0000   1.0000   1.0000   1.0000   1.0000   1.0000   1.0000   1.0000
     1.0000   1.0000   1.0000   1.0000   1.0000   1.0000   1.0000   1.0000
     1.0000   1.0000   1.0000   1.0000   1.0000   1.0000   1.0000   1.0000
     1.0000   1.0000   1.0000   1.0000   1.0000   1.0000   1.0000   1.0000
     1.0000   1.0000   1.0000   1.0000   1.0000   1.0000   1.0000   1.0000
     1.0000   1.0000   1.0000   1.0000   1.0000   1.0000   1.0000   1.0000
     1.0000   1.0000   1.0000   1.0000   1.0000   1.0000   1.0000   1.0000
     1.0000   1.0000   1.0000   1.0000   1.0000   1.0000   1.0000   1.0000
     1.0000   1.0000   1.0000   1.0000   1.0000   1.0000   1.0000   1.0000
     1.0000   1.0000   1.0000   1.0000   1.0000   1.0000   1.0000   1.0000
     1.0000   1.0000   1.0000   1.0000   1.0000   1.0000   1.0000   1.0000
     1.0000   1.0730   1.0684   1.0451   0.4400   0.0490   0.0000   0.0000
     0.0000   0.0000   0.0000   0.0000   0.0000   0.0000   0.0000   0.0000
     0.0000   0.0000   0.0000   0.0000   0.0000   0.0000   0.0000   0.0000
     0.0000   0.0000

          k = 0.2000-0.1155 0.0000 (164675 PWs)   bands (ev):

   -64.4155 -64.4041 -64.4031 -64.3976 -64.3967 -64.3874 -64.3243 -64.3214
   -38.6985 -38.6658 -38.6593 -38.6448 -38.6192 -38.5835 -38.5557 -38.5491
   -38.5407 -38.5165 -38.5154 -38.5133 -38.5131 -38.5024 -38.5003 -38.4818
   -38.4810 -38.4245 -38.4157 -38.4091 -38.3985 -38.3915 -38.3584 -38.3480
   -17.5236 -16.6898 -16.4658 -16.4583 -16.2657 -16.1105 -16.1005 -15.9739
   -15.9095 -15.8164 -15.7884 -15.6636 -15.6478 -15.6076 -15.5463 -15.5455
   -15.3937 -15.3925  -9.1403  -9.1025  -8.9554  -8.9523  -8.9400  -8.9239
    -8.7324  -8.6705  -8.5658  -8.4507  -8.3835  -8.1531  -8.1180  -7.9507
    -7.7126  -7.6912  -7.5919  -7.5463  -7.5280  -7.4939  -7.3912  -7.3846
    -7.3549  -7.3404  -7.2900  -7.0073  -6.9909  -6.9400  -6.9309  -6.5936
    -6.5519  -6.5507  -6.4808  -6.4754  -6.4437  -6.4296  -6.1730  -5.9130
    -5.7367  -5.6026  -5.5870  -5.5839  -5.5578  -5.3084  -5.2925  -5.2520
    -5.1465  -5.0946  -5.0677  -5.0657  -4.9847  -4.8507  -4.8469  -4.8258
    -4.7735  -4.7590  -4.6267  -4.3824  -4.3444  -4.3216  -3.9064  -3.8755
    -3.7033  -2.8383  -2.6473  -2.5502  -2.4950  -2.3478  -1.7433  -1.4908
    -1.4206  -1.3666  -1.3642  -1.2650  -1.2537  -1.1589  -1.1512  -1.1110
    -1.0176  -0.7679  -0.7383  -0.6416  -0.5785  -0.4816  -0.3998  -0.3888
    -0.3063  -0.3025

     occupation numbers 
     1.0000   1.0000   1.0000   1.0000   1.0000   1.0000   1.0000   1.0000
     1.0000   1.0000   1.0000   1.0000   1.0000   1.0000   1.0000   1.0000
     1.0000   1.0000   1.0000   1.0000   1.0000   1.0000   1.0000   1.0000
     1.0000   1.0000   1.0000   1.0000   1.0000   1.0000   1.0000   1.0000
     1.0000   1.0000   1.0000   1.0000   1.0000   1.0000   1.0000   1.0000
     1.0000   1.0000   1.0000   1.0000   1.0000   1.0000   1.0000   1.0000
     1.0000   1.0000   1.0000   1.0000   1.0000   1.0000   1.0000   1.0000
     1.0000   1.0000   1.0000   1.0000   1.0000   1.0000   1.0000   1.0000
     1.0000   1.0000   1.0000   1.0000   1.0000   1.0000   1.0000   1.0000
     1.0000   1.0000   1.0000   1.0000   1.0000   1.0000   1.0000   1.0000
     1.0000   1.0000   1.0000   1.0000   1.0000   1.0000   1.0000   1.0000
     1.0000   1.0000   1.0000   1.0000   1.0000   1.0000   1.0000   1.0000
     1.0000   1.0000   1.0000   1.0000   1.0000   1.0000   1.0000   1.0000
     1.0000   1.0000   1.0000   1.0000   1.0000   1.0000   1.0000   1.0000
     1.0000   1.0771   0.8555   0.5068   0.3179   0.0471   0.0000   0.0000
     0.0000   0.0000   0.0000   0.0000   0.0000   0.0000   0.0000   0.0000
     0.0000   0.0000   0.0000   0.0000   0.0000   0.0000   0.0000   0.0000
     0.0000   0.0000

          k = 0.4000-0.2309 0.0000 (164688 PWs)   bands (ev):

   -64.4126 -64.4084 -64.4047 -64.3963 -64.3930 -64.3896 -64.3238 -64.3217
   -38.7139 -38.6759 -38.6649 -38.6574 -38.6264 -38.5723 -38.5367 -38.5345
   -38.5273 -38.5247 -38.5162 -38.5000 -38.4968 -38.4928 -38.4863 -38.4851
   -38.4688 -38.4251 -38.4230 -38.4164 -38.4132 -38.3890 -38.3877 -38.3520
   -17.3376 -17.0467 -16.5477 -16.5410 -16.1931 -16.0493 -15.8933 -15.8840
   -15.8508 -15.8187 -15.7815 -15.6790 -15.6784 -15.5654 -15.5530 -15.5322
   -15.4647 -15.4607  -9.2945  -8.9734  -8.9203  -8.9202  -8.7857  -8.7763
    -8.7438  -8.7067  -8.6653  -8.5676  -8.5000  -8.3386  -8.2950  -8.2257
    -7.7726  -7.6855  -7.6076  -7.5672  -7.4744  -7.3545  -7.3406  -7.3344
    -7.3187  -7.1896  -7.0917  -7.0156  -6.8560  -6.7131  -6.6871  -6.6484
    -6.6386  -6.6195  -6.6110  -6.4063  -6.3856  -6.2329  -6.1869  -6.0121
    -5.9911  -5.7291  -5.7155  -5.5808  -5.5435  -5.4854  -5.4095  -5.3260
    -5.2969  -5.2356  -5.1581  -5.1456  -4.8685  -4.8197  -4.7315  -4.6122
    -4.5652  -4.5552  -4.5161  -4.2104  -4.1992  -4.1294  -3.9794  -3.9496
    -3.7538  -2.7690  -2.7579  -2.7574  -2.5219  -2.3467  -1.5064  -1.5056
    -1.4442  -1.3279  -1.3125  -1.1745  -1.1581  -1.1101  -1.0681  -1.0024
    -0.9825  -0.9149  -0.8816  -0.8128  -0.7989  -0.7228  -0.6531  -0.6427
    -0.3857  -0.3016

     occupation numbers 
     1.0000   1.0000   1.0000   1.0000   1.0000   1.0000   1.0000   1.0000
     1.0000   1.0000   1.0000   1.0000   1.0000   1.0000   1.0000   1.0000
     1.0000   1.0000   1.0000   1.0000   1.0000   1.0000   1.0000   1.0000
     1.0000   1.0000   1.0000   1.0000   1.0000   1.0000   1.0000   1.0000
     1.0000   1.0000   1.0000   1.0000   1.0000   1.0000   1.0000   1.0000
     1.0000   1.0000   1.0000   1.0000   1.0000   1.0000   1.0000   1.0000
     1.0000   1.0000   1.0000   1.0000   1.0000   1.0000   1.0000   1.0000
     1.0000   1.0000   1.0000   1.0000   1.0000   1.0000   1.0000   1.0000
     1.0000   1.0000   1.0000   1.0000   1.0000   1.0000   1.0000   1.0000
     1.0000   1.0000   1.0000   1.0000   1.0000   1.0000   1.0000   1.0000
     1.0000   1.0000   1.0000   1.0000   1.0000   1.0000   1.0000   1.0000
     1.0000   1.0000   1.0000   1.0000   1.0000   1.0000   1.0000   1.0000
     1.0000   1.0000   1.0000   1.0000   1.0000   1.0000   1.0000   1.0000
     1.0000   1.0000   1.0000   1.0000   1.0000   1.0000   1.0000   1.0000
     1.0000   1.0750   1.0682   1.0678   0.4055   0.0462   0.0000   0.0000
     0.0000   0.0000   0.0000   0.0000   0.0000   0.0000   0.0000   0.0000
     0.0000   0.0000   0.0000   0.0000   0.0000   0.0000   0.0000   0.0000
     0.0000   0.0000

          k =-0.2000 0.3464 0.0000 (164666 PWs)   bands (ev):

   -64.4135 -64.4062 -64.4058 -64.3951 -64.3950 -64.3889 -64.3239 -64.3216
   -38.7091 -38.6840 -38.6565 -38.6509 -38.6296 -38.5761 -38.5365 -38.5364
   -38.5308 -38.5201 -38.5186 -38.4991 -38.4974 -38.4970 -38.4851 -38.4849
   -38.4833 -38.4243 -38.4233 -38.4163 -38.4023 -38.3966 -38.3752 -38.3530
   -17.3984 -16.8506 -16.8164 -16.2154 -16.2081 -16.1710 -15.9834 -15.9377
   -15.8577 -15.8192 -15.6961 -15.6744 -15.6743 -15.5984 -15.5548 -15.5442
   -15.4547 -15.4268  -9.2125  -9.1151  -8.9779  -8.8366  -8.8345  -8.7634
    -8.7620  -8.6708  -8.6513  -8.5547  -8.5202  -8.3269  -8.2421  -8.0277
    -7.8268  -7.7426  -7.6522  -7.6093  -7.4085  -7.3993  -7.3710  -7.3060
    -7.2902  -7.1901  -7.1870  -6.8741  -6.8150  -6.7947  -6.7633  -6.6869
    -6.6796  -6.6546  -6.5787  -6.3750  -6.3575  -6.3061  -6.1510  -6.0310
    -6.0105  -5.7629  -5.6501  -5.6028  -5.5235  -5.4405  -5.3324  -5.3214
    -5.3062  -5.2498  -5.0621  -4.9272  -4.8686  -4.8562  -4.7846  -4.7406
    -4.6688  -4.5977  -4.5687  -4.2686  -4.1597  -4.1342  -4.0242  -3.9114
    -3.7297  -2.7725  -2.7257  -2.7031  -2.5437  -2.3493  -1.5318  -1.4499
    -1.4142  -1.3992  -1.3784  -1.2035  -1.1839  -1.1362  -1.0729  -1.0272
    -0.9608  -0.9185  -0.9042  -0.8002  -0.7640  -0.6143  -0.5543  -0.4831
    -0.4248  -0.4071

     occupation numbers 
     1.0000   1.0000   1.0000   1.0000   1.0000   1.0000   1.0000   1.0000
     1.0000   1.0000   1.0000   1.0000   1.0000   1.0000   1.0000   1.0000
     1.0000   1.0000   1.0000   1.0000   1.0000   1.0000   1.0000   1.0000
     1.0000   1.0000   1.0000   1.0000   1.0000   1.0000   1.0000   1.0000
     1.0000   1.0000   1.0000   1.0000   1.0000   1.0000   1.0000   1.0000
     1.0000   1.0000   1.0000   1.0000   1.0000   1.0000   1.0000   1.0000
     1.0000   1.0000   1.0000   1.0000   1.0000   1.0000   1.0000   1.0000
     1.0000   1.0000   1.0000   1.0000   1.0000   1.0000   1.0000   1.0000
     1.0000   1.0000   1.0000   1.0000   1.0000   1.0000   1.0000   1.0000
     1.0000   1.0000   1.0000   1.0000   1.0000   1.0000   1.0000   1.0000
     1.0000   1.0000   1.0000   1.0000   1.0000   1.0000   1.0000   1.0000
     1.0000   1.0000   1.0000   1.0000   1.0000   1.0000   1.0000   1.0000
     1.0000   1.0000   1.0000   1.0000   1.0000   1.0000   1.0000   1.0000
     1.0000   1.0000   1.0000   1.0000   1.0000   1.0000   1.0000   1.0000
     1.0000   1.0767   1.0344   0.9969   0.4830   0.0482   0.0000   0.0000
     0.0000   0.0000   0.0000   0.0000   0.0000   0.0000   0.0000   0.0000
     0.0000   0.0000   0.0000   0.0000   0.0000   0.0000   0.0000   0.0000
     0.0000   0.0000

          k = 0.4000-0.4619 0.0000 (164736 PWs)   bands (ev):

   -64.4106 -64.4096 -64.4067 -64.3944 -64.3917 -64.3917 -64.3237 -64.3218
   -38.7140 -38.6935 -38.6593 -38.6495 -38.6350 -38.5732 -38.5303 -38.5271
   -38.5263 -38.5205 -38.5189 -38.4988 -38.4961 -38.4904 -38.4903 -38.4702
   -38.4537 -38.4378 -38.4246 -38.4224 -38.4167 -38.3995 -38.3808 -38.3574
   -17.1760 -17.1440 -16.8826 -16.2208 -16.1487 -16.0698 -15.9742 -15.9295
   -15.8941 -15.7514 -15.6995 -15.6955 -15.6835 -15.5674 -15.5564 -15.5102
   -15.4853 -15.4811  -9.2641  -9.0733  -8.9982  -8.8207  -8.7903  -8.7352
    -8.7314  -8.6657  -8.6227  -8.5510  -8.5275  -8.4486  -8.3388  -8.1866
    -7.8642  -7.7902  -7.6660  -7.6226  -7.3673  -7.3168  -7.3006  -7.2703
    -7.2508  -7.1809  -7.1127  -7.0014  -6.7916  -6.7475  -6.7067  -6.6930
    -6.6648  -6.5106  -6.4259  -6.4160  -6.3757  -6.2700  -6.1797  -6.0160
    -5.9661  -5.8418  -5.7610  -5.6445  -5.6163  -5.5493  -5.3997  -5.3622
    -5.3535  -5.2342  -5.0618  -5.0095  -4.9427  -4.7876  -4.7667  -4.7562
    -4.5247  -4.4751  -4.4341  -4.2067  -4.1175  -4.0303  -3.9871  -3.8936
    -3.8215  -2.8500  -2.7582  -2.7339  -2.5318  -2.3503  -1.4597  -1.4133
    -1.3751  -1.3378  -1.2689  -1.2406  -1.1553  -1.1158  -1.0582  -1.0373
    -1.0008  -0.9898  -0.9471  -0.9209  -0.8493  -0.7705  -0.6879  -0.6763
    -0.4737  -0.2838

     occupation numbers 
     1.0000   1.0000   1.0000   1.0000   1.0000   1.0000   1.0000   1.0000
     1.0000   1.0000   1.0000   1.0000   1.0000   1.0000   1.0000   1.0000
     1.0000   1.0000   1.0000   1.0000   1.0000   1.0000   1.0000   1.0000
     1.0000   1.0000   1.0000   1.0000   1.0000   1.0000   1.0000   1.0000
     1.0000   1.0000   1.0000   1.0000   1.0000   1.0000   1.0000   1.0000
     1.0000   1.0000   1.0000   1.0000   1.0000   1.0000   1.0000   1.0000
     1.0000   1.0000   1.0000   1.0000   1.0000   1.0000   1.0000   1.0000
     1.0000   1.0000   1.0000   1.0000   1.0000   1.0000   1.0000   1.0000
     1.0000   1.0000   1.0000   1.0000   1.0000   1.0000   1.0000   1.0000
     1.0000   1.0000   1.0000   1.0000   1.0000   1.0000   1.0000   1.0000
     1.0000   1.0000   1.0000   1.0000   1.0000   1.0000   1.0000   1.0000
     1.0000   1.0000   1.0000   1.0000   1.0000   1.0000   1.0000   1.0000
     1.0000   1.0000   1.0000   1.0000   1.0000   1.0000   1.0000   1.0000
     1.0000   1.0000   1.0000   1.0000   1.0000   1.0000   1.0000   1.0000
     1.0000   1.0730   1.0684   1.0452   0.4399   0.0490   0.0000   0.0000
     0.0000   0.0000   0.0000   0.0000   0.0000   0.0000   0.0000   0.0000
     0.0000   0.0000   0.0000   0.0000   0.0000   0.0000   0.0000   0.0000
     0.0000   0.0000

 ------ SPIN DOWN ----------


          k = 0.0000 0.0000 0.0000 (164823 PWs)   bands (ev):

   -64.3234 -64.3103 -64.2808 -64.2753 -64.2753 -64.2752 -64.2752 -64.2616
   -38.5536 -38.5536 -38.5490 -38.5297 -38.5297 -38.4877 -38.4877 -38.4756
   -38.4428 -38.4190 -38.3744 -38.3696 -38.3696 -38.3695 -38.3695 -38.3678
   -38.3678 -38.3420 -38.3395 -38.3194 -38.3194 -38.2685 -38.2685 -38.2668
   -17.5342 -16.2661 -16.2661 -16.2661 -16.2448 -16.2395 -16.2394 -16.2295
   -15.7208 -15.7206 -15.7205 -15.7164 -15.6394 -15.6394 -15.4451 -15.4451
   -15.2971 -15.2971  -9.0873  -8.9187  -8.9187  -8.7950  -8.7950  -8.7515
    -8.7126  -8.6812  -8.6812  -8.1616  -7.9983  -7.8941  -7.8940  -7.6381
    -7.6144  -7.5919  -7.5798  -7.5798  -7.5490  -7.5490  -7.4217  -7.3783
    -7.3782  -7.3535  -7.3535  -7.1234  -7.1234  -6.8660  -6.8660  -6.4034
    -6.4034  -6.3797  -6.3258  -6.3226  -6.3096  -6.3095  -6.2548  -5.7122
    -5.6633  -5.6633  -5.4044  -5.4043  -5.2273  -5.2272  -5.1951  -5.1008
    -5.0549  -5.0417  -5.0417  -5.0065  -5.0065  -4.8814  -4.8814  -4.8616
    -4.7840  -4.5717  -4.5716  -4.4353  -4.3835  -4.3835  -3.7379  -3.7379
    -3.6489  -2.6057  -2.2687  -2.2687  -2.0394  -2.0393  -1.7228  -1.4673
    -1.2408  -1.2368  -1.2368  -1.1767  -1.1288  -1.1283  -1.1283  -1.0123
    -1.0123  -0.6180  -0.6177  -0.5061  -0.5059  -0.2748  -0.2748  -0.1077
    -0.0746  -0.0745

     occupation numbers 
     1.0000   1.0000   1.0000   1.0000   1.0000   1.0000   1.0000   1.0000
     1.0000   1.0000   1.0000   1.0000   1.0000   1.0000   1.0000   1.0000
     1.0000   1.0000   1.0000   1.0000   1.0000   1.0000   1.0000   1.0000
     1.0000   1.0000   1.0000   1.0000   1.0000   1.0000   1.0000   1.0000
     1.0000   1.0000   1.0000   1.0000   1.0000   1.0000   1.0000   1.0000
     1.0000   1.0000   1.0000   1.0000   1.0000   1.0000   1.0000   1.0000
     1.0000   1.0000   1.0000   1.0000   1.0000   1.0000   1.0000   1.0000
     1.0000   1.0000   1.0000   1.0000   1.0000   1.0000   1.0000   1.0000
     1.0000   1.0000   1.0000   1.0000   1.0000   1.0000   1.0000   1.0000
     1.0000   1.0000   1.0000   1.0000   1.0000   1.0000   1.0000   1.0000
     1.0000   1.0000   1.0000   1.0000   1.0000   1.0000   1.0000   1.0000
     1.0000   1.0000   1.0000   1.0000   1.0000   1.0000   1.0000   1.0000
     1.0000   1.0000   1.0000   1.0000   1.0000   1.0000   1.0000   1.0000
     1.0000   1.0000   1.0000   1.0000   1.0000   1.0000   1.0000   1.0000
     1.0000   0.7140   0.0111   0.0111   0.0000   0.0000   0.0000   0.0000
     0.0000   0.0000   0.0000   0.0000   0.0000   0.0000   0.0000   0.0000
     0.0000   0.0000   0.0000   0.0000   0.0000   0.0000   0.0000   0.0000
     0.0000   0.0000

          k = 0.0000 0.2309 0.0000 (164675 PWs)   bands (ev):

   -64.3230 -64.3105 -64.2812 -64.2780 -64.2780 -64.2721 -64.2716 -64.2624
   -38.5931 -38.5736 -38.5539 -38.5164 -38.4988 -38.4780 -38.4743 -38.4533
   -38.4411 -38.4206 -38.3778 -38.3752 -38.3730 -38.3710 -38.3655 -38.3629
   -38.3623 -38.3436 -38.3360 -38.3285 -38.3219 -38.2802 -38.2738 -38.2660
   -17.4699 -16.6332 -16.4085 -16.4072 -16.2022 -16.0525 -16.0477 -15.9245
   -15.8533 -15.7698 -15.7488 -15.6274 -15.5903 -15.5505 -15.4943 -15.4934
   -15.3202 -15.3200  -9.0293  -9.0142  -8.8501  -8.8467  -8.8340  -8.8264
    -8.6033  -8.5876  -8.5022  -8.3957  -8.3213  -8.0634  -8.0092  -7.8679
    -7.6084  -7.5878  -7.5016  -7.4640  -7.4396  -7.4106  -7.3266  -7.3191
    -7.3090  -7.3060  -7.2350  -6.9095  -6.9069  -6.8609  -6.8600  -6.5063
    -6.4876  -6.4759  -6.4354  -6.3921  -6.3914  -6.3469  -6.1248  -5.7593
    -5.6889  -5.5546  -5.4918  -5.4862  -5.4793  -5.2573  -5.2490  -5.1686
    -5.0813  -5.0563  -4.9898  -4.9715  -4.9156  -4.8166  -4.8129  -4.7380
    -4.7258  -4.6382  -4.5094  -4.3007  -4.2639  -4.2450  -3.8287  -3.7937
    -3.6350  -2.5377  -2.3550  -2.2678  -2.1891  -2.0368  -1.5539  -1.4255
    -1.3040  -1.2985  -1.2401  -1.1780  -1.1572  -1.0458  -1.0316  -0.9386
    -0.9223  -0.7179  -0.6675  -0.5745  -0.5289  -0.4341  -0.3461  -0.3390
    -0.2087  -0.2040

     occupation numbers 
     1.0000   1.0000   1.0000   1.0000   1.0000   1.0000   1.0000   1.0000
     1.0000   1.0000   1.0000   1.0000   1.0000   1.0000   1.0000   1.0000
     1.0000   1.0000   1.0000   1.0000   1.0000   1.0000   1.0000   1.0000
     1.0000   1.0000   1.0000   1.0000   1.0000   1.0000   1.0000   1.0000
     1.0000   1.0000   1.0000   1.0000   1.0000   1.0000   1.0000   1.0000
     1.0000   1.0000   1.0000   1.0000   1.0000   1.0000   1.0000   1.0000
     1.0000   1.0000   1.0000   1.0000   1.0000   1.0000   1.0000   1.0000
     1.0000   1.0000   1.0000   1.0000   1.0000   1.0000   1.0000   1.0000
     1.0000   1.0000   1.0000   1.0000   1.0000   1.0000   1.0000   1.0000
     1.0000   1.0000   1.0000   1.0000   1.0000   1.0000   1.0000   1.0000
     1.0000   1.0000   1.0000   1.0000   1.0000   1.0000   1.0000   1.0000
     1.0000   1.0000   1.0000   1.0000   1.0000   1.0000   1.0000   1.0000
     1.0000   1.0000   1.0000   1.0000   1.0000   1.0000   1.0000   1.0000
     1.0000   1.0000   1.0000   1.0000   1.0000   1.0000   1.0000   1.0000
     1.0000   0.4613   0.0528   0.0109   0.0019   0.0000   0.0000   0.0000
     0.0000   0.0000   0.0000   0.0000   0.0000   0.0000   0.0000   0.0000
     0.0000   0.0000   0.0000   0.0000   0.0000   0.0000   0.0000   0.0000
     0.0000   0.0000

          k = 0.0000 0.4619 0.0000 (164688 PWs)   bands (ev):

   -64.3223 -64.3110 -64.2824 -64.2796 -64.2790 -64.2702 -64.2679 -64.2646
   -38.6184 -38.5902 -38.5680 -38.5143 -38.4901 -38.4523 -38.4415 -38.4373
   -38.4241 -38.4039 -38.3869 -38.3820 -38.3783 -38.3732 -38.3625 -38.3588
   -38.3547 -38.3500 -38.3481 -38.3318 -38.3174 -38.3063 -38.2859 -38.2650
   -17.2833 -16.9926 -16.4916 -16.4889 -16.1233 -16.0006 -15.8325 -15.8276
   -15.8034 -15.7745 -15.7297 -15.6313 -15.6288 -15.5363 -15.5143 -15.4904
   -15.3743 -15.3682  -9.2078  -8.8757  -8.8303  -8.8231  -8.7161  -8.6599
    -8.6213  -8.5799  -8.5763  -8.4825  -8.4296  -8.2477  -8.2416  -8.1777
    -7.6479  -7.5380  -7.5218  -7.4606  -7.3801  -7.2910  -7.2802  -7.2576
    -7.2524  -7.1163  -7.0175  -6.9653  -6.7572  -6.6541  -6.6455  -6.6115
    -6.5991  -6.5675  -6.5625  -6.3181  -6.2475  -6.1571  -6.1428  -5.9319
    -5.8934  -5.6413  -5.6369  -5.4990  -5.4954  -5.4090  -5.3479  -5.2664
    -5.2503  -5.1391  -5.1133  -5.1064  -4.7278  -4.6839  -4.6551  -4.5815
    -4.5280  -4.5239  -4.4328  -4.1261  -4.1122  -4.0579  -3.9001  -3.8723
    -3.6853  -2.4542  -2.4533  -2.4435  -2.2322  -2.0339  -1.4299  -1.3854
    -1.2772  -1.2487  -1.1660  -1.1140  -1.0654  -1.0168  -0.9517  -0.9043
    -0.8639  -0.8501  -0.7697  -0.7666  -0.7269  -0.6654  -0.5577  -0.5395
    -0.3213  -0.2471

     occupation numbers 
     1.0000   1.0000   1.0000   1.0000   1.0000   1.0000   1.0000   1.0000
     1.0000   1.0000   1.0000   1.0000   1.0000   1.0000   1.0000   1.0000
     1.0000   1.0000   1.0000   1.0000   1.0000   1.0000   1.0000   1.0000
     1.0000   1.0000   1.0000   1.0000   1.0000   1.0000   1.0000   1.0000
     1.0000   1.0000   1.0000   1.0000   1.0000   1.0000   1.0000   1.0000
     1.0000   1.0000   1.0000   1.0000   1.0000   1.0000   1.0000   1.0000
     1.0000   1.0000   1.0000   1.0000   1.0000   1.0000   1.0000   1.0000
     1.0000   1.0000   1.0000   1.0000   1.0000   1.0000   1.0000   1.0000
     1.0000   1.0000   1.0000   1.0000   1.0000   1.0000   1.0000   1.0000
     1.0000   1.0000   1.0000   1.0000   1.0000   1.0000   1.0000   1.0000
     1.0000   1.0000   1.0000   1.0000   1.0000   1.0000   1.0000   1.0000
     1.0000   1.0000   1.0000   1.0000   1.0000   1.0000   1.0000   1.0000
     1.0000   1.0000   1.0000   1.0000   1.0000   1.0000   1.0000   1.0000
     1.0000   1.0000   1.0000   1.0000   1.0000   1.0000   1.0000   1.0000
     1.0000   0.2066   0.2046   0.1822   0.0051   0.0000   0.0000   0.0000
     0.0000   0.0000   0.0000   0.0000   0.0000   0.0000   0.0000   0.0000
     0.0000   0.0000   0.0000   0.0000   0.0000   0.0000   0.0000   0.0000
     0.0000   0.0000

          k = 0.2000 0.3464 0.0000 (164666 PWs)   bands (ev):

   -64.3224 -64.3109 -64.2822 -64.2794 -64.2788 -64.2698 -64.2696 -64.2639
   -38.6138 -38.5886 -38.5658 -38.5168 -38.4834 -38.4650 -38.4438 -38.4382
   -38.4232 -38.4192 -38.3823 -38.3794 -38.3765 -38.3735 -38.3657 -38.3583
   -38.3578 -38.3466 -38.3411 -38.3352 -38.3197 -38.3011 -38.2773 -38.2689
   -17.3443 -16.7869 -16.7719 -16.1490 -16.1425 -16.1269 -15.9183 -15.9043
   -15.7902 -15.7760 -15.6632 -15.6249 -15.6189 -15.5474 -15.5218 -15.4942
   -15.3692 -15.3457  -9.1027  -9.0544  -8.8845  -8.7178  -8.7047  -8.6703
    -8.6319  -8.6056  -8.5648  -8.4851  -8.4471  -8.2425  -8.1893  -7.9019
    -7.7666  -7.6241  -7.5480  -7.5167  -7.3393  -7.3032  -7.2869  -7.2440
    -7.2232  -7.1359  -7.0864  -6.8255  -6.7694  -6.7013  -6.6620  -6.6449
    -6.6245  -6.6061  -6.5332  -6.3079  -6.2434  -6.2310  -6.1013  -5.9880
    -5.8842  -5.6643  -5.5615  -5.5512  -5.4466  -5.3759  -5.2762  -5.2609
    -5.2246  -5.2114  -4.9598  -4.8529  -4.8392  -4.7969  -4.6503  -4.6142
    -4.6058  -4.5648  -4.5350  -4.1825  -4.0761  -4.0584  -3.9483  -3.8286
    -3.6616  -2.4616  -2.4227  -2.3987  -2.2479  -2.0377  -1.3813  -1.3513
    -1.3332  -1.2884  -1.2518  -1.1216  -1.1183  -0.9833  -0.9517  -0.9076
    -0.8900  -0.8670  -0.7894  -0.7524  -0.6899  -0.5125  -0.4939  -0.3865
    -0.3775  -0.3554

     occupation numbers 
     1.0000   1.0000   1.0000   1.0000   1.0000   1.0000   1.0000   1.0000
     1.0000   1.0000   1.0000   1.0000   1.0000   1.0000   1.0000   1.0000
     1.0000   1.0000   1.0000   1.0000   1.0000   1.0000   1.0000   1.0000
     1.0000   1.0000   1.0000   1.0000   1.0000   1.0000   1.0000   1.0000
     1.0000   1.0000   1.0000   1.0000   1.0000   1.0000   1.0000   1.0000
     1.0000   1.0000   1.0000   1.0000   1.0000   1.0000   1.0000   1.0000
     1.0000   1.0000   1.0000   1.0000   1.0000   1.0000   1.0000   1.0000
     1.0000   1.0000   1.0000   1.0000   1.0000   1.0000   1.0000   1.0000
     1.0000   1.0000   1.0000   1.0000   1.0000   1.0000   1.0000   1.0000
     1.0000   1.0000   1.0000   1.0000   1.0000   1.0000   1.0000   1.0000
     1.0000   1.0000   1.0000   1.0000   1.0000   1.0000   1.0000   1.0000
     1.0000   1.0000   1.0000   1.0000   1.0000   1.0000   1.0000   1.0000
     1.0000   1.0000   1.0000   1.0000   1.0000   1.0000   1.0000   1.0000
     1.0000   1.0000   1.0000   1.0000   1.0000   1.0000   1.0000   1.0000
     1.0000   0.2247   0.1408   0.1019   0.0072   0.0000   0.0000   0.0000
     0.0000   0.0000   0.0000   0.0000   0.0000   0.0000   0.0000   0.0000
     0.0000   0.0000   0.0000   0.0000   0.0000   0.0000   0.0000   0.0000
     0.0000   0.0000

          k = 0.2000 0.5774 0.0000 (164736 PWs)   bands (ev):

   -64.3221 -64.3111 -64.2829 -64.2800 -64.2790 -64.2688 -64.2665 -64.2665
   -38.6235 -38.5933 -38.5750 -38.5165 -38.4790 -38.4556 -38.4356 -38.4257
   -38.4135 -38.3986 -38.3846 -38.3800 -38.3768 -38.3737 -38.3698 -38.3589
   -38.3562 -38.3520 -38.3518 -38.3414 -38.3171 -38.3071 -38.2852 -38.2700
   -17.1151 -17.0961 -16.8297 -16.1647 -16.0544 -16.0418 -15.9313 -15.8640
   -15.8490 -15.6856 -15.6543 -15.6542 -15.6397 -15.5433 -15.5102 -15.4828
   -15.4017 -15.3663  -9.1728  -8.9887  -8.9369  -8.7127  -8.6788  -8.6477
    -8.5977  -8.5580  -8.5443  -8.4572  -8.3983  -8.3590  -8.2954  -8.1525
    -7.7803  -7.6622  -7.5607  -7.5320  -7.3020  -7.2331  -7.1819  -7.1747
    -7.1560  -7.1433  -7.0285  -6.9202  -6.7291  -6.7136  -6.6642  -6.6555
    -6.6075  -6.4656  -6.3739  -6.3323  -6.3150  -6.1353  -6.0884  -5.9598
    -5.8696  -5.7494  -5.7150  -5.5788  -5.5300  -5.4819  -5.3455  -5.3140
    -5.2950  -5.1498  -5.0080  -4.9695  -4.8331  -4.7190  -4.6882  -4.5952
    -4.4695  -4.4413  -4.4008  -4.1320  -4.0362  -3.9328  -3.9123  -3.8187
    -3.7544  -2.5434  -2.4529  -2.4100  -2.2292  -2.0384  -1.3613  -1.3240
    -1.2196  -1.2078  -1.1814  -1.1647  -1.0568  -1.0486  -0.9642  -0.9478
    -0.9422  -0.9215  -0.8395  -0.7868  -0.7310  -0.6802  -0.6147  -0.5941
    -0.4203  -0.2266

     occupation numbers 
     1.0000   1.0000   1.0000   1.0000   1.0000   1.0000   1.0000   1.0000
     1.0000   1.0000   1.0000   1.0000   1.0000   1.0000   1.0000   1.0000
     1.0000   1.0000   1.0000   1.0000   1.0000   1.0000   1.0000   1.0000
     1.0000   1.0000   1.0000   1.0000   1.0000   1.0000   1.0000   1.0000
     1.0000   1.0000   1.0000   1.0000   1.0000   1.0000   1.0000   1.0000
     1.0000   1.0000   1.0000   1.0000   1.0000   1.0000   1.0000   1.0000
     1.0000   1.0000   1.0000   1.0000   1.0000   1.0000   1.0000   1.0000
     1.0000   1.0000   1.0000   1.0000   1.0000   1.0000   1.0000   1.0000
     1.0000   1.0000   1.0000   1.0000   1.0000   1.0000   1.0000   1.0000
     1.0000   1.0000   1.0000   1.0000   1.0000   1.0000   1.0000   1.0000
     1.0000   1.0000   1.0000   1.0000   1.0000   1.0000   1.0000   1.0000
     1.0000   1.0000   1.0000   1.0000   1.0000   1.0000   1.0000   1.0000
     1.0000   1.0000   1.0000   1.0000   1.0000   1.0000   1.0000   1.0000
     1.0000   1.0000   1.0000   1.0000   1.0000   1.0000   1.0000   1.0000
     1.0000   0.4819   0.2036   0.1191   0.0048   0.0000   0.0000   0.0000
     0.0000   0.0000   0.0000   0.0000   0.0000   0.0000   0.0000   0.0000
     0.0000   0.0000   0.0000   0.0000   0.0000   0.0000   0.0000   0.0000
     0.0000   0.0000

          k = 0.2000-0.1155 0.0000 (164675 PWs)   bands (ev):

   -64.3230 -64.3105 -64.2812 -64.2780 -64.2780 -64.2721 -64.2716 -64.2624
   -38.5931 -38.5736 -38.5540 -38.5164 -38.4988 -38.4780 -38.4743 -38.4533
   -38.4411 -38.4206 -38.3778 -38.3752 -38.3729 -38.3710 -38.3655 -38.3629
   -38.3623 -38.3436 -38.3360 -38.3285 -38.3219 -38.2802 -38.2738 -38.2660
   -17.4699 -16.6332 -16.4086 -16.4071 -16.2022 -16.0524 -16.0477 -15.9245
   -15.8533 -15.7698 -15.7489 -15.6273 -15.5903 -15.5504 -15.4943 -15.4934
   -15.3202 -15.3200  -9.0292  -9.0143  -8.8501  -8.8467  -8.8340  -8.8264
    -8.6033  -8.5876  -8.5022  -8.3957  -8.3213  -8.0634  -8.0093  -7.8679
    -7.6084  -7.5878  -7.5016  -7.4640  -7.4396  -7.4106  -7.3266  -7.3191
    -7.3090  -7.3060  -7.2350  -6.9095  -6.9069  -6.8608  -6.8601  -6.5062
    -6.4876  -6.4759  -6.4354  -6.3921  -6.3914  -6.3468  -6.1248  -5.7593
    -5.6888  -5.5546  -5.4918  -5.4862  -5.4793  -5.2573  -5.2490  -5.1687
    -5.0813  -5.0563  -4.9899  -4.9715  -4.9157  -4.8166  -4.8129  -4.7380
    -4.7258  -4.6382  -4.5095  -4.3007  -4.2639  -4.2450  -3.8287  -3.7936
    -3.6350  -2.5377  -2.3550  -2.2678  -2.1891  -2.0368  -1.5538  -1.4255
    -1.3040  -1.2985  -1.2401  -1.1780  -1.1572  -1.0458  -1.0316  -0.9386
    -0.9223  -0.7180  -0.6674  -0.5746  -0.5288  -0.4341  -0.3461  -0.3390
    -0.2087  -0.2040

     occupation numbers 
     1.0000   1.0000   1.0000   1.0000   1.0000   1.0000   1.0000   1.0000
     1.0000   1.0000   1.0000   1.0000   1.0000   1.0000   1.0000   1.0000
     1.0000   1.0000   1.0000   1.0000   1.0000   1.0000   1.0000   1.0000
     1.0000   1.0000   1.0000   1.0000   1.0000   1.0000   1.0000   1.0000
     1.0000   1.0000   1.0000   1.0000   1.0000   1.0000   1.0000   1.0000
     1.0000   1.0000   1.0000   1.0000   1.0000   1.0000   1.0000   1.0000
     1.0000   1.0000   1.0000   1.0000   1.0000   1.0000   1.0000   1.0000
     1.0000   1.0000   1.0000   1.0000   1.0000   1.0000   1.0000   1.0000
     1.0000   1.0000   1.0000   1.0000   1.0000   1.0000   1.0000   1.0000
     1.0000   1.0000   1.0000   1.0000   1.0000   1.0000   1.0000   1.0000
     1.0000   1.0000   1.0000   1.0000   1.0000   1.0000   1.0000   1.0000
     1.0000   1.0000   1.0000   1.0000   1.0000   1.0000   1.0000   1.0000
     1.0000   1.0000   1.0000   1.0000   1.0000   1.0000   1.0000   1.0000
     1.0000   1.0000   1.0000   1.0000   1.0000   1.0000   1.0000   1.0000
     1.0000   0.4613   0.0528   0.0109   0.0019   0.0000   0.0000   0.0000
     0.0000   0.0000   0.0000   0.0000   0.0000   0.0000   0.0000   0.0000
     0.0000   0.0000   0.0000   0.0000   0.0000   0.0000   0.0000   0.0000
     0.0000   0.0000

          k = 0.4000-0.2309 0.0000 (164688 PWs)   bands (ev):

   -64.3223 -64.3110 -64.2824 -64.2796 -64.2790 -64.2702 -64.2679 -64.2646
   -38.6184 -38.5902 -38.5680 -38.5143 -38.4901 -38.4522 -38.4415 -38.4373
   -38.4241 -38.4039 -38.3869 -38.3820 -38.3783 -38.3732 -38.3625 -38.3588
   -38.3547 -38.3500 -38.3481 -38.3318 -38.3174 -38.3063 -38.2859 -38.2650
   -17.2833 -16.9926 -16.4916 -16.4889 -16.1233 -16.0006 -15.8325 -15.8276
   -15.8034 -15.7746 -15.7297 -15.6313 -15.6288 -15.5363 -15.5143 -15.4904
   -15.3744 -15.3682  -9.2078  -8.8757  -8.8303  -8.8231  -8.7161  -8.6599
    -8.6213  -8.5799  -8.5763  -8.4825  -8.4296  -8.2477  -8.2416  -8.1777
    -7.6479  -7.5380  -7.5218  -7.4606  -7.3800  -7.2911  -7.2802  -7.2576
    -7.2524  -7.1163  -7.0175  -6.9653  -6.7571  -6.6542  -6.6455  -6.6115
    -6.5991  -6.5675  -6.5625  -6.3181  -6.2475  -6.1571  -6.1427  -5.9320
    -5.8934  -5.6413  -5.6369  -5.4990  -5.4954  -5.4090  -5.3479  -5.2664
    -5.2503  -5.1391  -5.1133  -5.1065  -4.7277  -4.6839  -4.6551  -4.5815
    -4.5279  -4.5239  -4.4329  -4.1261  -4.1122  -4.0580  -3.9000  -3.8723
    -3.6853  -2.4542  -2.4533  -2.4435  -2.2321  -2.0339  -1.4298  -1.3854
    -1.2772  -1.2487  -1.1661  -1.1140  -1.0654  -1.0167  -0.9517  -0.9043
    -0.8640  -0.8502  -0.7697  -0.7667  -0.7269  -0.6655  -0.5577  -0.5395
    -0.3213  -0.2470

     occupation numbers 
     1.0000   1.0000   1.0000   1.0000   1.0000   1.0000   1.0000   1.0000
     1.0000   1.0000   1.0000   1.0000   1.0000   1.0000   1.0000   1.0000
     1.0000   1.0000   1.0000   1.0000   1.0000   1.0000   1.0000   1.0000
     1.0000   1.0000   1.0000   1.0000   1.0000   1.0000   1.0000   1.0000
     1.0000   1.0000   1.0000   1.0000   1.0000   1.0000   1.0000   1.0000
     1.0000   1.0000   1.0000   1.0000   1.0000   1.0000   1.0000   1.0000
     1.0000   1.0000   1.0000   1.0000   1.0000   1.0000   1.0000   1.0000
     1.0000   1.0000   1.0000   1.0000   1.0000   1.0000   1.0000   1.0000
     1.0000   1.0000   1.0000   1.0000   1.0000   1.0000   1.0000   1.0000
     1.0000   1.0000   1.0000   1.0000   1.0000   1.0000   1.0000   1.0000
     1.0000   1.0000   1.0000   1.0000   1.0000   1.0000   1.0000   1.0000
     1.0000   1.0000   1.0000   1.0000   1.0000   1.0000   1.0000   1.0000
     1.0000   1.0000   1.0000   1.0000   1.0000   1.0000   1.0000   1.0000
     1.0000   1.0000   1.0000   1.0000   1.0000   1.0000   1.0000   1.0000
     1.0000   0.2067   0.2046   0.1822   0.0051   0.0000   0.0000   0.0000
     0.0000   0.0000   0.0000   0.0000   0.0000   0.0000   0.0000   0.0000
     0.0000   0.0000   0.0000   0.0000   0.0000   0.0000   0.0000   0.0000
     0.0000   0.0000

          k =-0.2000 0.3464 0.0000 (164666 PWs)   bands (ev):

   -64.3224 -64.3109 -64.2822 -64.2794 -64.2788 -64.2697 -64.2696 -64.2639
   -38.6138 -38.5886 -38.5658 -38.5168 -38.4834 -38.4650 -38.4437 -38.4382
   -38.4232 -38.4192 -38.3823 -38.3794 -38.3765 -38.3735 -38.3657 -38.3583
   -38.3578 -38.3466 -38.3411 -38.3352 -38.3197 -38.3011 -38.2773 -38.2688
   -17.3443 -16.7869 -16.7719 -16.1490 -16.1425 -16.1268 -15.9184 -15.9043
   -15.7902 -15.7760 -15.6632 -15.6249 -15.6190 -15.5474 -15.5218 -15.4942
   -15.3692 -15.3457  -9.1027  -9.0544  -8.8845  -8.7178  -8.7047  -8.6703
    -8.6320  -8.6056  -8.5648  -8.4851  -8.4471  -8.2426  -8.1894  -7.9020
    -7.7666  -7.6241  -7.5480  -7.5167  -7.3393  -7.3032  -7.2869  -7.2440
    -7.2231  -7.1359  -7.0864  -6.8255  -6.7693  -6.7013  -6.6620  -6.6449
    -6.6245  -6.6061  -6.5331  -6.3080  -6.2434  -6.2310  -6.1014  -5.9879
    -5.8843  -5.6643  -5.5615  -5.5513  -5.4466  -5.3760  -5.2762  -5.2610
    -5.2245  -5.2114  -4.9598  -4.8529  -4.8392  -4.7969  -4.6503  -4.6142
    -4.6057  -4.5648  -4.5350  -4.1825  -4.0761  -4.0584  -3.9483  -3.8286
    -3.6616  -2.4617  -2.4227  -2.3987  -2.2479  -2.0377  -1.3813  -1.3513
    -1.3332  -1.2884  -1.2517  -1.1215  -1.1183  -0.9834  -0.9517  -0.9076
    -0.8901  -0.8671  -0.7894  -0.7524  -0.6899  -0.5125  -0.4940  -0.3866
    -0.3775  -0.3554

     occupation numbers 
     1.0000   1.0000   1.0000   1.0000   1.0000   1.0000   1.0000   1.0000
     1.0000   1.0000   1.0000   1.0000   1.0000   1.0000   1.0000   1.0000
     1.0000   1.0000   1.0000   1.0000   1.0000   1.0000   1.0000   1.0000
     1.0000   1.0000   1.0000   1.0000   1.0000   1.0000   1.0000   1.0000
     1.0000   1.0000   1.0000   1.0000   1.0000   1.0000   1.0000   1.0000
     1.0000   1.0000   1.0000   1.0000   1.0000   1.0000   1.0000   1.0000
     1.0000   1.0000   1.0000   1.0000   1.0000   1.0000   1.0000   1.0000
     1.0000   1.0000   1.0000   1.0000   1.0000   1.0000   1.0000   1.0000
     1.0000   1.0000   1.0000   1.0000   1.0000   1.0000   1.0000   1.0000
     1.0000   1.0000   1.0000   1.0000   1.0000   1.0000   1.0000   1.0000
     1.0000   1.0000   1.0000   1.0000   1.0000   1.0000   1.0000   1.0000
     1.0000   1.0000   1.0000   1.0000   1.0000   1.0000   1.0000   1.0000
     1.0000   1.0000   1.0000   1.0000   1.0000   1.0000   1.0000   1.0000
     1.0000   1.0000   1.0000   1.0000   1.0000   1.0000   1.0000   1.0000
     1.0000   0.2248   0.1407   0.1020   0.0072   0.0000   0.0000   0.0000
     0.0000   0.0000   0.0000   0.0000   0.0000   0.0000   0.0000   0.0000
     0.0000   0.0000   0.0000   0.0000   0.0000   0.0000   0.0000   0.0000
     0.0000   0.0000

          k = 0.4000-0.4619 0.0000 (164736 PWs)   bands (ev):

   -64.3221 -64.3111 -64.2829 -64.2800 -64.2790 -64.2688 -64.2666 -64.2665
   -38.6235 -38.5933 -38.5750 -38.5165 -38.4790 -38.4556 -38.4356 -38.4257
   -38.4135 -38.3986 -38.3846 -38.3800 -38.3768 -38.3737 -38.3698 -38.3589
   -38.3562 -38.3520 -38.3518 -38.3413 -38.3171 -38.3071 -38.2852 -38.2700
   -17.1151 -17.0961 -16.8297 -16.1647 -16.0544 -16.0418 -15.9313 -15.8639
   -15.8490 -15.6857 -15.6543 -15.6542 -15.6397 -15.5434 -15.5102 -15.4828
   -15.4017 -15.3663  -9.1727  -8.9887  -8.9369  -8.7127  -8.6788  -8.6477
    -8.5977  -8.5580  -8.5443  -8.4572  -8.3983  -8.3590  -8.2954  -8.1526
    -7.7803  -7.6622  -7.5607  -7.5319  -7.3020  -7.2331  -7.1819  -7.1746
    -7.1559  -7.1433  -7.0285  -6.9201  -6.7290  -6.7136  -6.6642  -6.6554
    -6.6075  -6.4656  -6.3738  -6.3323  -6.3150  -6.1353  -6.0884  -5.9599
    -5.8696  -5.7494  -5.7150  -5.5788  -5.5300  -5.4819  -5.3455  -5.3140
    -5.2950  -5.1497  -5.0080  -4.9695  -4.8331  -4.7189  -4.6882  -4.5952
    -4.4695  -4.4413  -4.4008  -4.1320  -4.0363  -3.9327  -3.9123  -3.8187
    -3.7544  -2.5434  -2.4529  -2.4100  -2.2291  -2.0384  -1.3613  -1.3240
    -1.2196  -1.2078  -1.1814  -1.1647  -1.0568  -1.0486  -0.9642  -0.9478
    -0.9422  -0.9215  -0.8395  -0.7868  -0.7309  -0.6802  -0.6147  -0.5940
    -0.4203  -0.2266

     occupation numbers 
     1.0000   1.0000   1.0000   1.0000   1.0000   1.0000   1.0000   1.0000
[...]
     atom   25 type  1   force =    -1.53035140   -4.29164155    0.00064007
     atom   26 type  2   force =    -0.77833656   -0.44947913  -39.71589907
     atom   27 type  2   force =    -0.77814204   -0.44935205   39.71572433
     The local contribution  to forces
     atom    1 type  1   force =    -2.91449957   -3.44018343   -0.00066232
     atom    2 type  2   force =    -0.00011953   -0.89017294   39.45113444
     atom    3 type  2   force =    -0.00007831   -0.88985916  -39.45096926
     atom    4 type  1   force =    -4.43619837   -0.80407941   -0.00043397
     atom    5 type  2   force =    -2.26170698   -1.30578518   38.14963691
     atom    6 type  2   force =    -2.26222380   -1.30604557  -38.14994680
     atom    7 type  1   force =    -0.00017564    0.00010141    0.00166545
     atom    8 type  2   force =    -0.77082590    0.44491529   39.45107880
     atom    9 type  2   force =    -0.77063880    0.44492852  -39.45081788
     atom   10 type  1   force =     2.91434491   -3.44015373   -0.00062682
     atom   11 type  2   force =     0.17667839    0.10186463   40.36547619
     atom   12 type  2   force =     0.17677231    0.10205475  -40.36550908
     atom   13 type  3   force =    -0.00024569    0.00014185    0.00245436
     atom   14 type  2   force =     2.26152438   -1.30579775   38.14953383
     atom   15 type  2   force =     2.26220112   -1.30608242  -38.15005668
     atom   16 type  1   force =    -1.52174599    4.24390018   -0.00043397
     atom   17 type  2   force =    -0.00010218    2.61135817   38.14968941
     atom   18 type  2   force =    -0.00004326    2.61216606  -38.14994680
     atom   19 type  1   force =     0.00027046   -0.00015615   -0.00022635
     atom   20 type  2   force =    -0.17676017    0.10190678   40.36560294
     atom   21 type  2   force =    -0.17677359    0.10206028  -40.36567367
     atom   22 type  1   force =     4.43643298   -0.80381986   -0.00062682
     atom   23 type  2   force =    -0.00000438   -0.20414025   40.36548110
     atom   24 type  2   force =     0.00000415   -0.20411669  -40.36550908
     atom   25 type  1   force =     1.52203646    4.24412238   -0.00066232
     atom   26 type  2   force =     0.77071301    0.44498813   39.45114821
     atom   27 type  2   force =     0.77060149    0.44499740  -39.45096926
     The core correction contribution to forces
     atom    1 type  1   force =     0.00153154    0.00102700   -0.00001995
     atom    2 type  2   force =     0.00000083    0.00018347   -0.00225764
     atom    3 type  2   force =    -0.00000010    0.00018224    0.00225753
     atom    4 type  1   force =     0.00165514    0.00081321   -0.00001990
     atom    5 type  2   force =    -0.00038824   -0.00022294   -0.00323997
     atom    6 type  2   force =    -0.00038800   -0.00022386    0.00323931
     atom    7 type  1   force =     0.00000004   -0.00000002   -0.00001789
     atom    8 type  2   force =     0.00015843   -0.00008948   -0.00225774
     atom    9 type  2   force =     0.00015771   -0.00009105    0.00225761
     atom   10 type  1   force =    -0.00153162    0.00102689   -0.00001996
     atom   11 type  2   force =    -0.00017837   -0.00010198   -0.00190218
     atom   12 type  2   force =    -0.00017934   -0.00010346    0.00190203
     atom   13 type  3   force =    -0.00000162    0.00000093   -0.00001152
     atom   14 type  2   force =     0.00038985   -0.00022290   -0.00323992
     atom   15 type  2   force =     0.00038778   -0.00022389    0.00323940
     atom   16 type  1   force =     0.00012331   -0.00183999   -0.00001990
     atom   17 type  2   force =     0.00000084    0.00045050   -0.00323966
     atom   18 type  2   force =    -0.00000013    0.00044795    0.00323931
     atom   19 type  1   force =    -0.00000028    0.00000016   -0.00001773
     atom   20 type  2   force =     0.00018002   -0.00010197   -0.00190203
     atom   21 type  2   force =     0.00017912   -0.00010341    0.00190191
     atom   22 type  1   force =    -0.00165512    0.00081298   -0.00001996
     atom   23 type  2   force =     0.00000083    0.00020848   -0.00190217
     atom   24 type  2   force =    -0.00000007    0.00020704    0.00190203
     atom   25 type  1   force =    -0.00012364   -0.00183985   -0.00001995
     atom   26 type  2   force =    -0.00015677   -0.00008947   -0.00225765
     atom   27 type  2   force =    -0.00015787   -0.00009103    0.00225753
     The Hubbard contrib.    to forces
     atom    1 type  1   force =     0.00000000    0.00000000    0.00000000
     atom    2 type  2   force =     0.00000000    0.00000000    0.00000000
     atom    3 type  2   force =     0.00000000    0.00000000    0.00000000
     atom    4 type  1   force =     0.00000000    0.00000000    0.00000000
     atom    5 type  2   force =     0.00000000    0.00000000    0.00000000
     atom    6 type  2   force =     0.00000000    0.00000000    0.00000000
     atom    7 type  1   force =     0.00000000    0.00000000    0.00000000
     atom    8 type  2   force =     0.00000000    0.00000000    0.00000000
     atom    9 type  2   force =     0.00000000    0.00000000    0.00000000
     atom   10 type  1   force =     0.00000000    0.00000000    0.00000000
     atom   11 type  2   force =     0.00000000    0.00000000    0.00000000
     atom   12 type  2   force =     0.00000000    0.00000000    0.00000000
     atom   13 type  3   force =     0.00000000    0.00000000    0.00000000
     atom   14 type  2   force =     0.00000000    0.00000000    0.00000000
     atom   15 type  2   force =     0.00000000    0.00000000    0.00000000
     atom   16 type  1   force =     0.00000000    0.00000000    0.00000000
     atom   17 type  2   force =     0.00000000    0.00000000    0.00000000
     atom   18 type  2   force =     0.00000000    0.00000000    0.00000000
     atom   19 type  1   force =     0.00000000    0.00000000    0.00000000
     atom   20 type  2   force =     0.00000000    0.00000000    0.00000000
     atom   21 type  2   force =     0.00000000    0.00000000    0.00000000
     atom   22 type  1   force =     0.00000000    0.00000000    0.00000000
     atom   23 type  2   force =     0.00000000    0.00000000    0.00000000
     atom   24 type  2   force =     0.00000000    0.00000000    0.00000000
     atom   25 type  1   force =     0.00000000    0.00000000    0.00000000
     atom   26 type  2   force =     0.00000000    0.00000000    0.00000000
     atom   27 type  2   force =     0.00000000    0.00000000    0.00000000
     The SCF correction term to forces
     atom    1 type  1   force =    -0.00001230   -0.00000597    0.00000382
     atom    2 type  2   force =     0.00000043   -0.00000324   -0.00000021
     atom    3 type  2   force =     0.00000052   -0.00000322    0.00000211
     atom    4 type  1   force =    -0.00000962   -0.00000011    0.00000350
     atom    5 type  2   force =    -0.00000577   -0.00000039   -0.00000063
     atom    6 type  2   force =    -0.00000596   -0.00000060    0.00000254
     atom    7 type  1   force =     0.00000590   -0.00000341    0.00000381
     atom    8 type  2   force =    -0.00000043    0.00000025    0.00000255
     atom    9 type  2   force =    -0.00000057    0.00000033   -0.00000074
     atom   10 type  1   force =     0.00001126   -0.00001367    0.00000422
     atom   11 type  2   force =     0.00000115   -0.00000184    0.00000279
     atom   12 type  2   force =     0.00000110   -0.00000159   -0.00000106
     atom   13 type  3   force =    -0.00000483    0.00000279    0.00000217
     atom   14 type  2   force =     0.00000374   -0.00000216   -0.00000253
     atom   15 type  2   force =     0.00000412   -0.00000238    0.00000440
     atom   16 type  1   force =    -0.00000471    0.00000838    0.00000350
     atom   17 type  2   force =    -0.00000255    0.00000519   -0.00000063
     atom   18 type  2   force =    -0.00000246    0.00000546    0.00000254
     atom   19 type  1   force =     0.00000120   -0.00000069    0.00000414
     atom   20 type  2   force =    -0.00000156    0.00000090    0.00000207
     atom   21 type  2   force =    -0.00000162    0.00000093   -0.00000015
     atom   22 type  1   force =     0.00001747   -0.00000292    0.00000422
     atom   23 type  2   force =     0.00000217   -0.00000007    0.00000279
     atom   24 type  2   force =     0.00000192   -0.00000016   -0.00000106
     atom   25 type  1   force =    -0.00000098    0.00001364    0.00000382
     atom   26 type  2   force =     0.00000302    0.00000124   -0.00000021
     atom   27 type  2   force =     0.00000305    0.00000116    0.00000211

     Dispersion contribution to forces:
     atom    1 type  1   force =     0.00108765    0.00110096    0.00000024
     atom    2 type  2   force =     0.00000001   -0.00001371    0.00173078
     atom    3 type  2   force =    -0.00000007   -0.00001390   -0.00173086
     atom    4 type  1   force =     0.00149709    0.00039145    0.00000020
     atom    5 type  2   force =    -0.00010817   -0.00006240    0.00148242
     atom    6 type  2   force =    -0.00010816   -0.00006247   -0.00148224
     atom    7 type  1   force =     0.00000019   -0.00000017   -0.00000044
     atom    8 type  2   force =    -0.00001190    0.00000694    0.00173080
     atom    9 type  2   force =    -0.00001207    0.00000696   -0.00173088
     atom   10 type  1   force =    -0.00108757    0.00110118    0.00000024
     atom   11 type  2   force =     0.00010773    0.00006224    0.00163135
     atom   12 type  2   force =     0.00010772    0.00006222   -0.00163140
     atom   13 type  3   force =     0.00000047   -0.00000034   -0.00000123
     atom   14 type  2   force =     0.00010820   -0.00006239    0.00148239
     atom   15 type  2   force =     0.00010819   -0.00006248   -0.00148212
     atom   16 type  1   force =     0.00040948   -0.00149234    0.00000020
     atom   17 type  2   force =     0.00000002    0.00012499    0.00148242
     atom   18 type  2   force =     0.00000000    0.00012489   -0.00148223
     atom   19 type  1   force =    -0.00000012    0.00000002    0.00000005
     atom   20 type  2   force =    -0.00010766    0.00006223    0.00163136
     atom   21 type  2   force =    -0.00010780    0.00006222   -0.00163141
     atom   22 type  1   force =    -0.00149749    0.00039118    0.00000024
     atom   23 type  2   force =     0.00000003   -0.00012431    0.00163135
     atom   24 type  2   force =    -0.00000003   -0.00012442   -0.00163140
     atom   25 type  1   force =    -0.00040968   -0.00149250    0.00000024
     atom   26 type  2   force =     0.00001194    0.00000696    0.00173078
     atom   27 type  2   force =     0.00001199    0.00000698   -0.00173086

     Total force =     0.017707     Total SCF correction =     0.000041

     Total Dispersion Force =     0.007854


     Computing stress (Cartesian axis) and pressure


     negative rho (up, down):  2.128E-02 2.128E-02
          total   stress  (Ry/bohr**3)                   (kbar)     P=        1.19
   0.00001567  -0.00000000   0.00000000            2.30       -0.00        0.00
  -0.00000000   0.00001567  -0.00000000           -0.00        2.30       -0.00
   0.00000000  -0.00000000  -0.00000704            0.00       -0.00       -1.04

     kinetic stress (kbar)   2763.33     -0.00      0.00
                               -0.00   2763.33     -0.00
                                0.00     -0.00   2786.98

     local   stress (kbar)-163821.96      0.01     -0.00
                                0.01-163821.93     -0.00
                               -0.00     -0.00 162219.99

     nonloc. stress (kbar)   1155.63      0.00     -0.00
                                0.00   1155.63      0.00
                               -0.00      0.00   1153.00

     hartree stress (kbar)  81068.99     -0.00      0.00
                               -0.00  81068.98     -0.00
                                0.00     -0.00 -80020.51

     exc-cor stress (kbar)   -185.32     -0.00      0.00
                               -0.00   -185.32      0.00
                                0.00      0.00   -185.91

     corecor stress (kbar)   -370.56      0.00     -0.00
                                0.00   -370.56     -0.00
                               -0.00     -0.00   -370.64

     ewald   stress (kbar)  79391.61     -0.00      0.00
                               -0.00  79391.58      0.01
                                0.00      0.01 -85583.34

     hubbard stress (kbar)      0.00      0.00      0.00
                                0.00      0.00      0.00
                                0.00      0.00      0.00

     DFT-D   stress (kbar)      0.59     -0.00     -0.00
                               -0.00      0.59     -0.00
                               -0.00     -0.00     -0.61

     XDM     stress (kbar)      0.00      0.00      0.00
                                0.00      0.00      0.00
                                0.00      0.00      0.00

     dft-nl  stress (kbar)      0.00      0.00      0.00
                                0.00      0.00      0.00
                                0.00      0.00      0.00

     TS-vdW  stress (kbar)      0.00      0.00      0.00
                                0.00      0.00      0.00
                                0.00      0.00      0.00


     Energy error            =      8.1E-04
     Gradient error          =      5.1E-03

     number of scf cycles    =   6
     number of bfgs steps    =   5

     energy   old            =   -4437.4109608516 Ry
     energy   new            =   -4437.4117678531 Ry

     CASE: energy  _new < energy  _old

     new trust radius        =       0.0068042788 bohr
     new conv_thr            =       0.0000000002 Ry


ATOMIC_POSITIONS (crystal)
Mo            0.1052963807        0.2175498492        0.4215077607
S             0.2225686699        0.1118031364        0.3817720053
S             0.2225655970        0.1117995215        0.4612425771
Mo            0.1052967662        0.5544130612        0.4215076660
S             0.2104036986        0.4385361138        0.3814654030
S             0.2103988573        0.4385334086        0.4615503510
Mo            0.1111106916        0.8888893084        0.4215066853
S             0.2225685951        0.7774347382        0.3817720014
S             0.2225657293        0.7774342707        0.4612424136
Mo            0.4455863507        0.2175501226        0.4215077597
S             0.5579724333        0.1123206108        0.3809780481
S             0.5579705749        0.1123189304        0.4620369268
Pd            0.4444435968        0.5555564032        0.4215046246
S             0.5614670530        0.4385362804        0.3814654508
S             0.5614678059        0.4385321941        0.4615507295
Mo            0.4455869388        0.8947032338        0.4215076660
S             0.5614672196        0.7895996347        0.3814654030
S             0.5614665914        0.7896011427        0.4615503510
Mo            0.7777780369        0.2222219631        0.4215076283
S             0.8876830792        0.1123202541        0.3809779861
S             0.8876808381        0.1123191619        0.4620370461
Mo            0.7824498774        0.5544136493        0.4215077597
S             0.8876827225        0.4420309001        0.3809780481
S             0.8876810696        0.4420294251        0.4620369268
Mo            0.7824501508        0.8947036193        0.4215077607
S             0.8882001969        0.7774346634        0.3817720053
S             0.8882004785        0.7774344030        0.4612425771



     Writing output data file ./out/mos2.save/
     NEW-OLD atomic charge density approx. for the potential

     negative rho (up, down):  2.128E-02 2.128E-02
     Generating pointlists ...

     total cpu time spent up to now is   250291.3 secs

     Self-consistent Calculation

     iteration #  1     ecut=    60.00 Ry     beta= 0.40
     Davidson diagonalization with overlap
     ethr =  1.00E-06,  avg # of iterations =  3.8

     Threshold (ethr) on eigenvalues was too large:
     Diagonalizing with lowered threshold

     Davidson diagonalization with overlap
     ethr =  1.88E-08,  avg # of iterations =  4.6

     negative rho (up, down):  2.126E-02 2.127E-02

     total cpu time spent up to now is   253481.1 secs

     total energy              =   -4437.41199032 Ry
     estimated scf accuracy    <       0.00005192 Ry

     total magnetization       =     0.01 Bohr mag/cell
     absolute magnetization    =     0.01 Bohr mag/cell

     iteration #  2     ecut=    60.00 Ry     beta= 0.40
     Davidson diagonalization with overlap
     ethr =  2.26E-08,  avg # of iterations =  5.6

     negative rho (up, down):  2.127E-02 2.127E-02

     total cpu time spent up to now is   254751.2 secs

     total energy              =   -4437.41198013 Ry
     estimated scf accuracy    <       0.00026554 Ry

     total magnetization       =     0.01 Bohr mag/cell
     absolute magnetization    =     0.01 Bohr mag/cell

     iteration #  3     ecut=    60.00 Ry     beta= 0.40
     Davidson diagonalization with overlap
     ethr =  2.26E-08,  avg # of iterations =  5.4

     negative rho (up, down):  2.126E-02 2.126E-02

     total cpu time spent up to now is   255931.8 secs

     total energy              =   -4437.41200937 Ry
     estimated scf accuracy    <       0.00001144 Ry

     total magnetization       =     0.01 Bohr mag/cell
     absolute magnetization    =     0.01 Bohr mag/cell

     iteration #  4     ecut=    60.00 Ry     beta= 0.40
     Davidson diagonalization with overlap
     ethr =  4.97E-09,  avg # of iterations =  2.1

     negative rho (up, down):  2.126E-02 2.126E-02

     total cpu time spent up to now is   256988.7 secs

     total energy              =   -4437.41201125 Ry
     estimated scf accuracy    <       0.00000345 Ry

     total magnetization       =     0.01 Bohr mag/cell
     absolute magnetization    =     0.01 Bohr mag/cell

     iteration #  5     ecut=    60.00 Ry     beta= 0.40
     Davidson diagonalization with overlap
     ethr =  1.50E-09,  avg # of iterations =  2.0

     negative rho (up, down):  2.126E-02 2.126E-02

     total cpu time spent up to now is   258055.8 secs

     total energy              =   -4437.41201217 Ry
     estimated scf accuracy    <       0.00000249 Ry

     total magnetization       =     0.01 Bohr mag/cell
     absolute magnetization    =     0.01 Bohr mag/cell

     iteration #  6     ecut=    60.00 Ry     beta= 0.40
     Davidson diagonalization with overlap
     ethr =  1.08E-09,  avg # of iterations =  1.9

     negative rho (up, down):  2.126E-02 2.126E-02

     total cpu time spent up to now is   259075.2 secs

     total energy              =   -4437.41201252 Ry
     estimated scf accuracy    <       0.00000088 Ry

     total magnetization       =     0.01 Bohr mag/cell
     absolute magnetization    =     0.01 Bohr mag/cell

     iteration #  7     ecut=    60.00 Ry     beta= 0.40
     Davidson diagonalization with overlap
     ethr =  3.85E-10,  avg # of iterations =  2.0

     negative rho (up, down):  2.126E-02 2.126E-02

     total cpu time spent up to now is   260105.9 secs

     total energy              =   -4437.41201276 Ry
     estimated scf accuracy    <       0.00000070 Ry

     total magnetization       =     0.01 Bohr mag/cell
     absolute magnetization    =     0.01 Bohr mag/cell

     iteration #  8     ecut=    60.00 Ry     beta= 0.40
     Davidson diagonalization with overlap
     ethr =  3.04E-10,  avg # of iterations =  1.1

     negative rho (up, down):  2.126E-02 2.126E-02

     total cpu time spent up to now is   261083.5 secs

     total energy              =   -4437.41201285 Ry
     estimated scf accuracy    <       0.00000011 Ry

     total magnetization       =     0.01 Bohr mag/cell
     absolute magnetization    =     0.01 Bohr mag/cell

     iteration #  9     ecut=    60.00 Ry     beta= 0.40
     Davidson diagonalization with overlap
