
     Program PWSCF v.6.7MaX starts on 31Mar2024 at 12:53:30 

     This program is part of the open-source Quantum ESPRESSO suite
     for quantum simulation of materials; please cite
         "P. Giannozzi et al., J. Phys.:Condens. Matter 21 395502 (2009);
         "P. Giannozzi et al., J. Phys.:Condens. Matter 29 465901 (2017);
          URL http://www.quantum-espresso.org", 
     in publications or presentations arising from this work. More details at
     http://www.quantum-espresso.org/quote

     Parallel version (MPI), running on     4 processors

     MPI processes distributed on     1 nodes
     R & G space division:  proc/nbgrp/npool/nimage =       4
     Reading input from pwscf-k-point-551.in

     Current dimensions of program PWSCF are:
     Max number of different atomic species (ntypx) = 10
     Max number of k-points (npk) =  40000
     Max angular momentum in pseudopotentials (lmaxx) =  3
     file Mo.pbe-spn-kjpaw_psl.1.0.0.UPF: wavefunction(s)  4S 4D renormalized
     file S.pbe-n-kjpaw_psl.1.0.0.UPF: wavefunction(s)  3S 3P renormalized

     Subspace diagonalization in iterative solution of the eigenvalue problem:
     one sub-group per band group will be used
     scalapack distributed-memory algorithm (size of sub-group:  2*  2 procs)

     Found symmetry operation: I + ( -0.0000  0.5000  0.0000)
     This is a supercell, fractional translations are disabled
     Message from routine setup:
     using ibrav=0 with symmetry is DISCOURAGED, use correct ibrav instead

     Parallelization info
     --------------------
     sticks:   dense  smooth     PW     G-vecs:    dense   smooth      PW
     Min         801     640    171               226307   161982   22721
     Max         802     641    172               226334   162003   22737
     Sum        3205    2563    685               905261   647965   90917



     bravais-lattice index     =            0
     lattice parameter (alat)  =      11.9468  a.u.
     unit-cell volume          =    9146.9521 (a.u.)^3
     number of atoms/cell      =           12
     number of atomic types    =            2
     number of electrons       =       104.00
     number of Kohn-Sham states=           62
     kinetic-energy cutoff     =      65.0000  Ry
     charge density cutoff     =     325.0000  Ry
     scf convergence threshold =      2.4E-09
     mixing beta               =       0.4000
     number of iterations used =            8  plain     mixing
     Exchange-correlation= SLA  PW   PBX  PBC
                           (   1   4   3   4   0   0   0)

     celldm(1)=  11.946849  celldm(2)=   0.000000  celldm(3)=   0.000000
     celldm(4)=   0.000000  celldm(5)=   0.000000  celldm(6)=   0.000000

     crystal axes: (cart. coord. in units of alat)
               a(1) = (   1.000000   0.000000   0.000000 )  
               a(2) = (  -0.500000   0.866025   0.000000 )  
               a(3) = (   0.000000  -0.000000   6.194207 )  

     reciprocal axes: (cart. coord. in units 2 pi/alat)
               b(1) = (  1.000000  0.577350  0.000000 )  
               b(2) = ( -0.000000  1.154701  0.000000 )  
               b(3) = (  0.000000 -0.000000  0.161441 )  


     PseudoPot. # 1 for Mo read from file:
     ./pseudo/Mo.pbe-spn-kjpaw_psl.1.0.0.UPF
     MD5 check sum: 4396e0c640fcce5c25f020efccf1ab12
     Pseudo is Projector augmented-wave + core cor, Zval = 14.0
     Generated using &quot;atomic&quot; code by A. Dal Corso  v.6.3
     Shape of augmentation charge: PSQ
     Using radial grid of 1229 points,  6 beta functions with: 
                l(1) =   0
                l(2) =   0
                l(3) =   1
                l(4) =   1
                l(5) =   2
                l(6) =   2
     Q(r) pseudized with 0 coefficients 


     PseudoPot. # 2 for S  read from file:
     ./pseudo/S.pbe-n-kjpaw_psl.1.0.0.UPF
     MD5 check sum: fb45dfebcf3e72a4e1bd4a866ec2e262
     Pseudo is Projector augmented-wave + core cor, Zval =  6.0
     Generated using &quot;atomic&quot; code by A. Dal Corso  v.6.3
     Shape of augmentation charge: PSQ
     Using radial grid of 1151 points,  6 beta functions with: 
                l(1) =   0
                l(2) =   0
                l(3) =   1
                l(4) =   1
                l(5) =   2
                l(6) =   2
     Q(r) pseudized with 0 coefficients 


     atomic species   valence    mass     pseudopotential
        Mo            14.00    95.96000     Mo( 1.00)
        S              6.00    32.06500     S ( 1.00)

     Starting magnetic structure 
     atomic species   magnetization
        Mo           0.357
        S            0.100

      6 Sym. Ops. (no inversion) found


                                    s                        frac. trans.

      isym =  1     identity                                     

 cryst.   s( 1) = (     1          0          0      )
                  (     0          1          0      )
                  (     0          0          1      )

 cart.    s( 1) = (  1.0000000  0.0000000  0.0000000 )
                  (  0.0000000  1.0000000  0.0000000 )
                  (  0.0000000  0.0000000  1.0000000 )


      isym =  2     120 deg rotation - cryst. axis [0,0,1]       

 cryst.   s( 2) = (     0          1          0      )
                  (    -1         -1          0      )
                  (     0          0          1      )

 cart.    s( 2) = ( -0.5000000 -0.8660254  0.0000000 )
                  (  0.8660254 -0.5000000  0.0000000 )
                  (  0.0000000  0.0000000  1.0000000 )


      isym =  3     120 deg rotation - cryst. axis [0,0,-1]      

 cryst.   s( 3) = (    -1         -1          0      )
                  (     1          0          0      )
                  (     0          0          1      )

 cart.    s( 3) = ( -0.5000000  0.8660254  0.0000000 )
                  ( -0.8660254 -0.5000000  0.0000000 )
                  (  0.0000000  0.0000000  1.0000000 )


      isym =  4     inv. 180 deg rotation - cart. axis [1,0,0]   

 cryst.   s( 4) = (    -1          0          0      )
                  (     1          1          0      )
                  (     0          0          1      )

 cart.    s( 4) = ( -1.0000000  0.0000000  0.0000000 )
                  (  0.0000000  1.0000000  0.0000000 )
                  (  0.0000000  0.0000000  1.0000000 )


      isym =  5     inv. 180 deg rotation - cryst. axis [0,1,0]  

 cryst.   s( 5) = (     1          1          0      )
                  (     0         -1          0      )
                  (     0          0          1      )

 cart.    s( 5) = (  0.5000000  0.8660254  0.0000000 )
                  (  0.8660254 -0.5000000  0.0000000 )
                  (  0.0000000  0.0000000  1.0000000 )


      isym =  6     inv. 180 deg rotation - cryst. axis [1,1,0]  

 cryst.   s( 6) = (     0         -1          0      )
                  (    -1          0          0      )
                  (     0          0          1      )

 cart.    s( 6) = (  0.5000000 -0.8660254  0.0000000 )
                  ( -0.8660254 -0.5000000  0.0000000 )
                  (  0.0000000  0.0000000  1.0000000 )


   Cartesian axes

     site n.     atom                  positions (alat units)
         1           Mo  tau(   1) = (  -0.0000025   0.2886766   2.6109044  )
         2           S   tau(   2) = (   0.2500000   0.1443405   2.3726669  )
         3           S   tau(   3) = (   0.2500025   0.1443361   2.8491419  )
         4           Mo  tau(   4) = (  -0.2500025   0.7216893   2.6109044  )
         5           S   tau(   5) = (  -0.0000000   0.5773532   2.3726669  )
         6           S   tau(   6) = (   0.0000025   0.5773488   2.8491419  )
         7           Mo  tau(   7) = (   0.4999975   0.2886766   2.6109044  )
         8           S   tau(   8) = (   0.7500000   0.1443405   2.3726669  )
         9           S   tau(   9) = (   0.7500025   0.1443361   2.8491419  )
        10           Mo  tau(  10) = (   0.2499975   0.7216893   2.6109044  )
        11           S   tau(  11) = (   0.5000000   0.5773532   2.3726669  )
        12           S   tau(  12) = (   0.5000025   0.5773488   2.8491419  )

   Crystallographic axes

     site n.     atom                  positions (cryst. coord.)
         1           Mo  tau(   1) = (  0.1666650  0.3333350  0.4215075  )
         2           S   tau(   2) = (  0.3333350  0.1666700  0.3830461  )
         3           S   tau(   3) = (  0.3333350  0.1666650  0.4599688  )
         4           Mo  tau(   4) = (  0.1666650  0.8333350  0.4215075  )
         5           S   tau(   5) = (  0.3333350  0.6666700  0.3830461  )
         6           S   tau(   6) = (  0.3333350  0.6666650  0.4599688  )
         7           Mo  tau(   7) = (  0.6666650  0.3333350  0.4215075  )
         8           S   tau(   8) = (  0.8333350  0.1666700  0.3830461  )
         9           S   tau(   9) = (  0.8333350  0.1666650  0.4599688  )
        10           Mo  tau(  10) = (  0.6666650  0.8333350  0.4215075  )
        11           S   tau(  11) = (  0.8333350  0.6666700  0.3830461  )
        12           S   tau(  12) = (  0.8333350  0.6666650  0.4599688  )

     number of k points=     5  Marzari-Vanderbilt smearing, width (Ry)=  0.0147
                       cart. coord. in units 2pi/alat
        k(    1) = (   0.0000000   0.0000000   0.0000000), wk =   0.0400000
        k(    2) = (   0.0000000   0.2309401   0.0000000), wk =   0.2400000
        k(    3) = (   0.0000000   0.4618802   0.0000000), wk =   0.2400000
        k(    4) = (   0.2000000   0.3464102   0.0000000), wk =   0.2400000
        k(    5) = (   0.2000000   0.5773503   0.0000000), wk =   0.2400000

                       cryst. coord.
        k(    1) = (   0.0000000   0.0000000   0.0000000), wk =   0.0400000
        k(    2) = (   0.0000000   0.2000000   0.0000000), wk =   0.2400000
        k(    3) = (   0.0000000   0.4000000   0.0000000), wk =   0.2400000
        k(    4) = (   0.2000000   0.2000000   0.0000000), wk =   0.2400000
        k(    5) = (   0.2000000   0.4000000   0.0000000), wk =   0.2400000

     Dense  grid:   905261 G-vectors     FFT dimensions: (  72,  72, 432)

     Smooth grid:   647965 G-vectors     FFT dimensions: (  64,  64, 384)

     Dynamical RAM for                 wfc:      19.14 MB

     Dynamical RAM for     wfc (w. buffer):     210.59 MB

     Dynamical RAM for           str. fact:       6.91 MB

     Dynamical RAM for           local pot:       0.00 MB

     Dynamical RAM for          nlocal pot:      66.70 MB

     Dynamical RAM for                qrad:       2.89 MB

     Dynamical RAM for          rho,v,vnew:      46.35 MB

     Dynamical RAM for               rhoin:      15.45 MB

     Dynamical RAM for            rho*nmix:     110.50 MB

     Dynamical RAM for           G-vectors:      14.19 MB

     Dynamical RAM for          h,s,v(r/c):       0.18 MB

     Dynamical RAM for          <psi|beta>:       0.20 MB

     Dynamical RAM for                 psi:      38.29 MB

     Dynamical RAM for                hpsi:      38.29 MB

     Dynamical RAM for                spsi:      38.29 MB

     Dynamical RAM for      wfcinit/wfcrot:      44.58 MB

     Dynamical RAM for           addusdens:     673.37 MB

     Dynamical RAM for          addusforce:     721.78 MB

     Dynamical RAM for         addusstress:     699.27 MB

     Estimated static dynamical RAM per process >     509.56 MB

     Estimated max dynamical RAM per process >       1.20 GB

     Estimated total dynamical RAM >       4.81 GB
     Generating pointlists ...
     new r_m :   0.1544 (alat units)  1.8445 (a.u.) for type    1
     new r_m :   0.1544 (alat units)  1.8445 (a.u.) for type    2

     Initial potential from superposition of free atoms

     starting charge  103.99622, renormalised to  104.00000

     negative rho (up, down):  3.811E-03 1.767E-03
     Starting wfcs are   72 randomized atomic wfcs
     Checking if some PAW data can be deallocated... 

     total cpu time spent up to now is       47.9 secs

     Self-consistent Calculation

     iteration #  1     ecut=    65.00 Ry     beta= 0.40
     Davidson diagonalization with overlap
     ethr =  1.00E-02,  avg # of iterations =  2.9

     Threshold (ethr) on eigenvalues was too large:
     Diagonalizing with lowered threshold

     Davidson diagonalization with overlap
     ethr =  9.68E-04,  avg # of iterations =  2.0

     negative rho (up, down):  3.502E-03 2.284E-03

     total cpu time spent up to now is      280.9 secs

     total energy              =   -1986.17314705 Ry
     estimated scf accuracy    <       1.12636604 Ry

     total magnetization       =     1.56 Bohr mag/cell
     absolute magnetization    =     5.05 Bohr mag/cell

     iteration #  2     ecut=    65.00 Ry     beta= 0.40
     Davidson diagonalization with overlap
     ethr =  1.08E-03,  avg # of iterations =  2.0

     negative rho (up, down):  3.351E-03 2.604E-03

     total cpu time spent up to now is      391.8 secs

     total energy              =   -1986.49884883 Ry
     estimated scf accuracy    <       0.47588145 Ry

     total magnetization       =     0.06 Bohr mag/cell
     absolute magnetization    =     3.39 Bohr mag/cell

     iteration #  3     ecut=    65.00 Ry     beta= 0.40
     Davidson diagonalization with overlap
     ethr =  4.58E-04,  avg # of iterations =  2.0

     negative rho (up, down):  3.276E-03 2.818E-03

     total cpu time spent up to now is      500.3 secs

     total energy              =   -1986.70234646 Ry
     estimated scf accuracy    <       0.24074788 Ry

     total magnetization       =     0.00 Bohr mag/cell
     absolute magnetization    =     2.67 Bohr mag/cell

     iteration #  4     ecut=    65.00 Ry     beta= 0.40
     Davidson diagonalization with overlap
     ethr =  2.31E-04,  avg # of iterations =  1.7

     negative rho (up, down):  3.217E-03 2.953E-03

     total cpu time spent up to now is      607.8 secs

     total energy              =   -1986.74568338 Ry
     estimated scf accuracy    <       0.01793815 Ry

     total magnetization       =     0.01 Bohr mag/cell
     absolute magnetization    =     1.67 Bohr mag/cell

     iteration #  5     ecut=    65.00 Ry     beta= 0.40
     Davidson diagonalization with overlap
     ethr =  1.72E-05,  avg # of iterations =  6.0

     negative rho (up, down):  3.178E-03 3.016E-03

     total cpu time spent up to now is      751.7 secs

     total energy              =   -1986.75402558 Ry
     estimated scf accuracy    <       0.00732263 Ry

     total magnetization       =     0.03 Bohr mag/cell
     absolute magnetization    =     0.77 Bohr mag/cell

     iteration #  6     ecut=    65.00 Ry     beta= 0.40
     Davidson diagonalization with overlap
     ethr =  7.04E-06,  avg # of iterations =  3.0

     negative rho (up, down):  3.150E-03 3.066E-03

     total cpu time spent up to now is      861.8 secs

     total energy              =   -1986.75637938 Ry
     estimated scf accuracy    <       0.00184696 Ry

     total magnetization       =     0.03 Bohr mag/cell
     absolute magnetization    =     0.64 Bohr mag/cell

     iteration #  7     ecut=    65.00 Ry     beta= 0.40
     Davidson diagonalization with overlap
     ethr =  1.78E-06,  avg # of iterations =  5.4

     negative rho (up, down):  3.135E-03 3.092E-03

     total cpu time spent up to now is      997.7 secs

     total energy              =   -1986.75784259 Ry
     estimated scf accuracy    <       0.00172185 Ry

     total magnetization       =     0.01 Bohr mag/cell
     absolute magnetization    =     0.29 Bohr mag/cell

     iteration #  8     ecut=    65.00 Ry     beta= 0.40
     Davidson diagonalization with overlap
     ethr =  1.66E-06,  avg # of iterations =  3.7

     negative rho (up, down):  3.128E-03 3.106E-03

     total cpu time spent up to now is     1120.7 secs

     total energy              =   -1986.75845321 Ry
     estimated scf accuracy    <       0.00038000 Ry

     total magnetization       =     0.01 Bohr mag/cell
     absolute magnetization    =     0.14 Bohr mag/cell

     iteration #  9     ecut=    65.00 Ry     beta= 0.40
     Davidson diagonalization with overlap
     ethr =  3.65E-07,  avg # of iterations =  2.2

     negative rho (up, down):  3.125E-03 3.114E-03

     total cpu time spent up to now is     1233.7 secs

     total energy              =   -1986.75848868 Ry
     estimated scf accuracy    <       0.00030011 Ry

     total magnetization       =     0.01 Bohr mag/cell
     absolute magnetization    =     0.11 Bohr mag/cell

     iteration # 10     ecut=    65.00 Ry     beta= 0.40
     Davidson diagonalization with overlap
     ethr =  2.89E-07,  avg # of iterations =  2.4

     negative rho (up, down):  3.123E-03 3.117E-03

     total cpu time spent up to now is     1345.0 secs

     total energy              =   -1986.75855038 Ry
     estimated scf accuracy    <       0.00001006 Ry

     total magnetization       =     0.00 Bohr mag/cell
     absolute magnetization    =     0.06 Bohr mag/cell

     iteration # 11     ecut=    65.00 Ry     beta= 0.40
     Davidson diagonalization with overlap
     ethr =  9.67E-09,  avg # of iterations =  5.2

     negative rho (up, down):  3.123E-03 3.119E-03

     total cpu time spent up to now is     1499.6 secs

     total energy              =   -1986.75856330 Ry
     estimated scf accuracy    <       0.00000141 Ry

     total magnetization       =     0.00 Bohr mag/cell
     absolute magnetization    =     0.02 Bohr mag/cell

     iteration # 12     ecut=    65.00 Ry     beta= 0.40
     Davidson diagonalization with overlap
     ethr =  1.35E-09,  avg # of iterations =  5.0

     negative rho (up, down):  3.123E-03 3.121E-03

     total cpu time spent up to now is     1648.5 secs

     total energy              =   -1986.75856490 Ry
     estimated scf accuracy    <       0.00000019 Ry

     total magnetization       =     0.00 Bohr mag/cell
     absolute magnetization    =     0.01 Bohr mag/cell

     iteration # 13     ecut=    65.00 Ry     beta= 0.40
     Davidson diagonalization with overlap
     ethr =  1.84E-10,  avg # of iterations =  4.2

     negative rho (up, down):  3.123E-03 3.121E-03

     total cpu time spent up to now is     1788.1 secs

     total energy              =   -1986.75856515 Ry
     estimated scf accuracy    <       0.00000012 Ry

     total magnetization       =     0.00 Bohr mag/cell
     absolute magnetization    =     0.00 Bohr mag/cell

     iteration # 14     ecut=    65.00 Ry     beta= 0.40
     Davidson diagonalization with overlap
     ethr =  1.11E-10,  avg # of iterations =  3.6

     negative rho (up, down):  3.123E-03 3.122E-03

     total cpu time spent up to now is     1918.4 secs

     total energy              =   -1986.75856521 Ry
     estimated scf accuracy    <       0.00000002 Ry

     total magnetization       =     0.00 Bohr mag/cell
     absolute magnetization    =     0.00 Bohr mag/cell

     iteration # 15     ecut=    65.00 Ry     beta= 0.40
     Davidson diagonalization with overlap
     ethr =  1.67E-11,  avg # of iterations =  3.8

     negative rho (up, down):  3.123E-03 3.122E-03

     total cpu time spent up to now is     2053.6 secs

     total energy              =   -1986.75856522 Ry
     estimated scf accuracy    <          3.8E-09 Ry

     total magnetization       =     0.00 Bohr mag/cell
     absolute magnetization    =     0.00 Bohr mag/cell

     iteration # 16     ecut=    65.00 Ry     beta= 0.40
     Davidson diagonalization with overlap
     ethr =  3.67E-12,  avg # of iterations =  3.6

     negative rho (up, down):  3.122E-03 3.122E-03

     Magnetic moment per site:
     atom:    1    charge:   10.6497    magn:    0.0000    constr:    0.0000
     atom:    2    charge:    4.0639    magn:    0.0000    constr:    0.0000
     atom:    3    charge:    4.0634    magn:    0.0000    constr:    0.0000
     atom:    4    charge:   10.6497    magn:    0.0000    constr:    0.0000
     atom:    5    charge:    4.0639    magn:    0.0000    constr:    0.0000
     atom:    6    charge:    4.0634    magn:   -0.0000    constr:    0.0000
     atom:    7    charge:   10.6497    magn:    0.0000    constr:    0.0000
     atom:    8    charge:    4.0639    magn:    0.0000    constr:    0.0000
     atom:    9    charge:    4.0634    magn:    0.0000    constr:    0.0000
     atom:   10    charge:   10.6497    magn:    0.0000    constr:    0.0000
     atom:   11    charge:    4.0639    magn:    0.0000    constr:    0.0000
     atom:   12    charge:    4.0634    magn:    0.0000    constr:    0.0000

     total cpu time spent up to now is     2184.2 secs

     End of self-consistent calculation

 ------ SPIN UP ------------


          k = 0.0000 0.0000 0.0000 ( 81189 PWs)   bands (ev):

   -64.2392 -64.1967 -64.1967 -64.1967 -38.6084 -38.6084 -38.6083 -38.4133
   -38.3272 -38.3272 -38.3272 -38.2885 -38.2884 -38.2884 -38.1932 -38.1932
   -17.7571 -16.2218 -15.8254 -15.8253 -15.8252 -15.5737 -15.5737 -15.5736
    -9.3826  -9.3825  -9.3823  -9.2449  -8.2901  -8.2901  -8.2900  -7.6511
    -7.6511  -7.6510  -6.8339  -6.8337  -6.8337  -6.3503  -6.3503  -5.1598
    -5.1597  -5.1597  -5.1327  -5.1322  -5.0642  -4.5119  -4.5118  -4.5118
    -4.0447  -4.0446  -4.0446  -3.2411  -1.1385  -1.1385  -1.1384  -0.5614
    -0.5614  -0.5614  -0.5501  -0.5497  -0.1505  -0.1502

     occupation numbers 
     1.0000   1.0000   1.0000   1.0000   1.0000   1.0000   1.0000   1.0000
     1.0000   1.0000   1.0000   1.0000   1.0000   1.0000   1.0000   1.0000
     1.0000   1.0000   1.0000   1.0000   1.0000   1.0000   1.0000   1.0000
     1.0000   1.0000   1.0000   1.0000   1.0000   1.0000   1.0000   1.0000
     1.0000   1.0000   1.0000   1.0000   1.0000   1.0000   1.0000   1.0000
     1.0000   1.0000   1.0000   1.0000   1.0000   1.0000   1.0000   1.0000
     1.0000   1.0000   1.0000   0.7224   0.0000   0.0000   0.0000   0.0000
     0.0000   0.0000   0.0000   0.0000   0.0000   0.0000

          k = 0.0000 0.2309 0.0000 ( 80979 PWs)   bands (ev):

   -64.2351 -64.2008 -64.1967 -64.1967 -38.5872 -38.5871 -38.5698 -38.4052
   -38.3354 -38.3272 -38.3272 -38.3107 -38.3107 -38.2794 -38.2341 -38.2024
   -17.6033 -16.1686 -16.0556 -15.8336 -15.8335 -15.6466 -15.5633 -15.5632
    -9.1993  -9.1941  -9.1939  -9.0827  -8.4031  -8.4031  -8.0702  -7.5561
    -7.5560  -7.5191  -6.7635  -6.7633  -6.7143  -6.6557  -6.1868  -5.9021
    -5.3666  -5.1613  -5.1612  -5.1031  -5.1029  -5.0704  -4.6884  -4.5093
    -4.2841  -3.9738  -3.9738  -3.3410  -1.1450  -1.1024  -1.1022  -0.7162
    -0.7127  -0.5552  -0.5552  -0.5350  -0.3316  -0.2718

     occupation numbers 
     1.0000   1.0000   1.0000   1.0000   1.0000   1.0000   1.0000   1.0000
     1.0000   1.0000   1.0000   1.0000   1.0000   1.0000   1.0000   1.0000
     1.0000   1.0000   1.0000   1.0000   1.0000   1.0000   1.0000   1.0000
     1.0000   1.0000   1.0000   1.0000   1.0000   1.0000   1.0000   1.0000
     1.0000   1.0000   1.0000   1.0000   1.0000   1.0000   1.0000   1.0000
     1.0000   1.0000   1.0000   1.0000   1.0000   1.0000   1.0000   1.0000
     1.0000   1.0000   1.0000   1.0057   0.0000   0.0000   0.0000   0.0000
     0.0000   0.0000   0.0000   0.0000   0.0000   0.0000

          k = 0.0000 0.4619 0.0000 ( 80894 PWs)   bands (ev):

   -64.2245 -64.2114 -64.1967 -64.1967 -38.5427 -38.5427 -38.4680 -38.3837
   -38.3571 -38.3569 -38.3569 -38.3397 -38.3272 -38.3272 -38.2558 -38.2263
   -17.1788 -16.5963 -16.0222 -15.8467 -15.8467 -15.8241 -15.5463 -15.5462
    -8.8294  -8.8294  -8.8056  -8.7470  -8.5594  -8.5594  -7.4913  -7.4244
    -7.2503  -7.2502  -7.2337  -6.7254  -6.7006  -6.7006  -6.3733  -6.1930
    -6.1930  -5.8737  -5.7423  -5.1643  -4.9616  -4.9615  -4.7989  -4.4657
    -4.3323  -4.0168  -4.0168  -3.7772  -1.1361  -1.1361  -1.0340  -0.9842
    -0.9636  -0.7158  -0.6148  -0.5015  -0.5015  -0.0317

     occupation numbers 
     1.0000   1.0000   1.0000   1.0000   1.0000   1.0000   1.0000   1.0000
     1.0000   1.0000   1.0000   1.0000   1.0000   1.0000   1.0000   1.0000
     1.0000   1.0000   1.0000   1.0000   1.0000   1.0000   1.0000   1.0000
     1.0000   1.0000   1.0000   1.0000   1.0000   1.0000   1.0000   1.0000
     1.0000   1.0000   1.0000   1.0000   1.0000   1.0000   1.0000   1.0000
     1.0000   1.0000   1.0000   1.0000   1.0000   1.0000   1.0000   1.0000
     1.0000   1.0000   1.0000   1.0009   0.0000   0.0000   0.0000   0.0000
     0.0000   0.0000   0.0000   0.0000   0.0000   0.0000

          k = 0.2000 0.3464 0.0000 ( 80909 PWs)   bands (ev):

   -64.2278 -64.2041 -64.2041 -64.1934 -38.5612 -38.5217 -38.5216 -38.3904
   -38.3774 -38.3422 -38.3422 -38.3205 -38.3044 -38.2898 -38.2897 -38.2219
   -17.3138 -16.2349 -16.2349 -16.0684 -15.6973 -15.6973 -15.6580 -15.4759
    -8.9306  -8.9306  -8.8312  -8.8207  -8.8076  -7.9195  -7.9194  -7.4982
    -7.3669  -7.3668  -7.0870  -6.7188  -6.7188  -6.5599  -6.4236  -6.2215
    -5.9078  -5.9001  -5.3314  -5.3313  -5.2257  -4.7996  -4.7996  -4.2825
    -4.2711  -4.2710  -3.7464  -3.6154  -1.4034  -1.1484  -1.1484  -0.9213
    -0.8385  -0.7978  -0.7977  -0.6265  -0.0652   0.0285

     occupation numbers 
     1.0000   1.0000   1.0000   1.0000   1.0000   1.0000   1.0000   1.0000
     1.0000   1.0000   1.0000   1.0000   1.0000   1.0000   1.0000   1.0000
     1.0000   1.0000   1.0000   1.0000   1.0000   1.0000   1.0000   1.0000
     1.0000   1.0000   1.0000   1.0000   1.0000   1.0000   1.0000   1.0000
     1.0000   1.0000   1.0000   1.0000   1.0000   1.0000   1.0000   1.0000
     1.0000   1.0000   1.0000   1.0000   1.0000   1.0000   1.0000   1.0000
     1.0000   1.0000   1.0017   1.0189   0.0000   0.0000   0.0000   0.0000
     0.0000   0.0000   0.0000   0.0000   0.0000   0.0000

          k = 0.2000 0.5774 0.0000 ( 80926 PWs)   bands (ev):

   -64.2160 -64.2160 -64.2053 -64.1922 -38.5250 -38.4898 -38.4294 -38.4141
   -38.4141 -38.3663 -38.3663 -38.3447 -38.3180 -38.3075 -38.2558 -38.2557
   -16.8071 -16.8071 -16.3028 -15.8930 -15.8930 -15.7132 -15.5929 -15.4370
    -9.0179  -8.7441  -8.6496  -8.6496  -8.4080  -7.8477  -7.3965  -7.3965
    -7.3736  -7.2324  -7.1303  -7.1302  -6.9978  -6.8268  -6.4972  -6.4971
    -6.3968  -5.7920  -5.5149  -5.5149  -5.3402  -4.5326  -4.4011  -4.4010
    -4.2732  -4.1425  -4.1423  -3.6145  -1.6653  -1.2063  -1.2056  -1.2054
    -0.8173  -0.8172  -0.7831  -0.5769  -0.5769  -0.3784

     occupation numbers 
     1.0000   1.0000   1.0000   1.0000   1.0000   1.0000   1.0000   1.0000
     1.0000   1.0000   1.0000   1.0000   1.0000   1.0000   1.0000   1.0000
     1.0000   1.0000   1.0000   1.0000   1.0000   1.0000   1.0000   1.0000
     1.0000   1.0000   1.0000   1.0000   1.0000   1.0000   1.0000   1.0000
     1.0000   1.0000   1.0000   1.0000   1.0000   1.0000   1.0000   1.0000
     1.0000   1.0000   1.0000   1.0000   1.0000   1.0000   1.0000   1.0000
     1.0000   1.0000   1.0000   1.0192   0.0000   0.0000   0.0000   0.0000
     0.0000   0.0000   0.0000   0.0000   0.0000   0.0000

 ------ SPIN DOWN ----------


          k = 0.0000 0.0000 0.0000 ( 81189 PWs)   bands (ev):

   -64.2392 -64.1967 -64.1967 -64.1967 -38.6084 -38.6084 -38.6083 -38.4133
   -38.3271 -38.3271 -38.3271 -38.2885 -38.2885 -38.2884 -38.1933 -38.1932
   -17.7570 -16.2218 -15.8254 -15.8253 -15.8252 -15.5737 -15.5737 -15.5736
    -9.3826  -9.3825  -9.3823  -9.2449  -8.2901  -8.2901  -8.2900  -7.6511
    -7.6510  -7.6510  -6.8339  -6.8338  -6.8337  -6.3504  -6.3503  -5.1598
    -5.1597  -5.1596  -5.1327  -5.1322  -5.0642  -4.5119  -4.5118  -4.5118
    -4.0446  -4.0446  -4.0445  -3.2410  -1.1385  -1.1385  -1.1384  -0.5614
    -0.5614  -0.5613  -0.5502  -0.5497  -0.1505  -0.1502

     occupation numbers 
     1.0000   1.0000   1.0000   1.0000   1.0000   1.0000   1.0000   1.0000
     1.0000   1.0000   1.0000   1.0000   1.0000   1.0000   1.0000   1.0000
     1.0000   1.0000   1.0000   1.0000   1.0000   1.0000   1.0000   1.0000
     1.0000   1.0000   1.0000   1.0000   1.0000   1.0000   1.0000   1.0000
     1.0000   1.0000   1.0000   1.0000   1.0000   1.0000   1.0000   1.0000
     1.0000   1.0000   1.0000   1.0000   1.0000   1.0000   1.0000   1.0000
     1.0000   1.0000   1.0000   0.7220   0.0000   0.0000   0.0000   0.0000
     0.0000   0.0000   0.0000   0.0000   0.0000   0.0000

          k = 0.0000 0.2309 0.0000 ( 80979 PWs)   bands (ev):

   -64.2351 -64.2008 -64.1967 -64.1967 -38.5872 -38.5872 -38.5699 -38.4051
   -38.3354 -38.3271 -38.3271 -38.3107 -38.3107 -38.2794 -38.2341 -38.2024
   -17.6033 -16.1686 -16.0556 -15.8336 -15.8335 -15.6465 -15.5633 -15.5632
    -9.1993  -9.1940  -9.1939  -9.0827  -8.4031  -8.4031  -8.0702  -7.5561
    -7.5560  -7.5190  -6.7635  -6.7633  -6.7143  -6.6557  -6.1868  -5.9021
    -5.3666  -5.1613  -5.1612  -5.1030  -5.1029  -5.0704  -4.6884  -4.5093
    -4.2841  -3.9738  -3.9738  -3.3408  -1.1450  -1.1023  -1.1022  -0.7161
    -0.7127  -0.5552  -0.5552  -0.5350  -0.3317  -0.2719

     occupation numbers 
     1.0000   1.0000   1.0000   1.0000   1.0000   1.0000   1.0000   1.0000
     1.0000   1.0000   1.0000   1.0000   1.0000   1.0000   1.0000   1.0000
     1.0000   1.0000   1.0000   1.0000   1.0000   1.0000   1.0000   1.0000
     1.0000   1.0000   1.0000   1.0000   1.0000   1.0000   1.0000   1.0000
     1.0000   1.0000   1.0000   1.0000   1.0000   1.0000   1.0000   1.0000
     1.0000   1.0000   1.0000   1.0000   1.0000   1.0000   1.0000   1.0000
     1.0000   1.0000   1.0000   1.0054   0.0000   0.0000   0.0000   0.0000
     0.0000   0.0000   0.0000   0.0000   0.0000   0.0000

          k = 0.0000 0.4619 0.0000 ( 80894 PWs)   bands (ev):

   -64.2245 -64.2114 -64.1967 -64.1967 -38.5427 -38.5427 -38.4680 -38.3837
   -38.3570 -38.3569 -38.3569 -38.3397 -38.3272 -38.3272 -38.2558 -38.2264
   -17.1788 -16.5963 -16.0222 -15.8467 -15.8467 -15.8241 -15.5462 -15.5462
    -8.8294  -8.8294  -8.8056  -8.7470  -8.5594  -8.5594  -7.4913  -7.4244
    -7.2502  -7.2502  -7.2337  -6.7254  -6.7006  -6.7006  -6.3733  -6.1930
    -6.1929  -5.8737  -5.7423  -5.1643  -4.9615  -4.9615  -4.7989  -4.4656
    -4.3323  -4.0168  -4.0168  -3.7771  -1.1360  -1.1360  -1.0340  -0.9841
    -0.9636  -0.7159  -0.6149  -0.5016  -0.5015  -0.0235

     occupation numbers 
     1.0000   1.0000   1.0000   1.0000   1.0000   1.0000   1.0000   1.0000
     1.0000   1.0000   1.0000   1.0000   1.0000   1.0000   1.0000   1.0000
     1.0000   1.0000   1.0000   1.0000   1.0000   1.0000   1.0000   1.0000
     1.0000   1.0000   1.0000   1.0000   1.0000   1.0000   1.0000   1.0000
     1.0000   1.0000   1.0000   1.0000   1.0000   1.0000   1.0000   1.0000
     1.0000   1.0000   1.0000   1.0000   1.0000   1.0000   1.0000   1.0000
     1.0000   1.0000   1.0000   1.0009   0.0000   0.0000   0.0000   0.0000
     0.0000   0.0000   0.0000   0.0000   0.0000   0.0000

          k = 0.2000 0.3464 0.0000 ( 80909 PWs)   bands (ev):

   -64.2278 -64.2040 -64.2040 -64.1934 -38.5612 -38.5217 -38.5216 -38.3903
   -38.3774 -38.3421 -38.3421 -38.3205 -38.3044 -38.2898 -38.2897 -38.2219
   -17.3138 -16.2349 -16.2349 -16.0684 -15.6973 -15.6973 -15.6580 -15.4759
    -8.9306  -8.9306  -8.8312  -8.8207  -8.8076  -7.9195  -7.9194  -7.4982
    -7.3668  -7.3668  -7.0870  -6.7188  -6.7188  -6.5599  -6.4236  -6.2215
    -5.9079  -5.9002  -5.3314  -5.3313  -5.2256  -4.7995  -4.7995  -4.2824
    -4.2711  -4.2710  -3.7464  -3.6153  -1.4034  -1.1485  -1.1485  -0.9213
    -0.8385  -0.7977  -0.7977  -0.6265  -0.0652   0.0285

     occupation numbers 
     1.0000   1.0000   1.0000   1.0000   1.0000   1.0000   1.0000   1.0000
     1.0000   1.0000   1.0000   1.0000   1.0000   1.0000   1.0000   1.0000
     1.0000   1.0000   1.0000   1.0000   1.0000   1.0000   1.0000   1.0000
     1.0000   1.0000   1.0000   1.0000   1.0000   1.0000   1.0000   1.0000
     1.0000   1.0000   1.0000   1.0000   1.0000   1.0000   1.0000   1.0000
     1.0000   1.0000   1.0000   1.0000   1.0000   1.0000   1.0000   1.0000
     1.0000   1.0000   1.0017   1.0190   0.0000   0.0000   0.0000   0.0000
     0.0000   0.0000   0.0000   0.0000   0.0000   0.0000

          k = 0.2000 0.5774 0.0000 ( 80926 PWs)   bands (ev):

   -64.2160 -64.2159 -64.2053 -64.1921 -38.5250 -38.4898 -38.4294 -38.4141
   -38.4141 -38.3663 -38.3662 -38.3447 -38.3179 -38.3075 -38.2558 -38.2557
   -16.8071 -16.8071 -16.3027 -15.8930 -15.8930 -15.7132 -15.5929 -15.4370
    -9.0179  -8.7441  -8.6496  -8.6496  -8.4080  -7.8477  -7.3965  -7.3965
    -7.3736  -7.2323  -7.1303  -7.1302  -6.9978  -6.8268  -6.4972  -6.4971
    -6.3968  -5.7920  -5.5149  -5.5149  -5.3401  -4.5326  -4.4010  -4.4009
    -4.2732  -4.1424  -4.1423  -3.6145  -1.6652  -1.2063  -1.2056  -1.2054
    -0.8173  -0.8172  -0.7831  -0.5769  -0.5769  -0.3785

     occupation numbers 
     1.0000   1.0000   1.0000   1.0000   1.0000   1.0000   1.0000   1.0000
     1.0000   1.0000   1.0000   1.0000   1.0000   1.0000   1.0000   1.0000
     1.0000   1.0000   1.0000   1.0000   1.0000   1.0000   1.0000   1.0000
     1.0000   1.0000   1.0000   1.0000   1.0000   1.0000   1.0000   1.0000
     1.0000   1.0000   1.0000   1.0000   1.0000   1.0000   1.0000   1.0000
     1.0000   1.0000   1.0000   1.0000   1.0000   1.0000   1.0000   1.0000
     1.0000   1.0000   1.0000   1.0192   0.0000   0.0000   0.0000   0.0000
     0.0000   0.0000   0.0000   0.0000   0.0000   0.0000

     the Fermi energy is    -3.1537 ev

!    total energy              =   -1986.75856523 Ry

     total all-electron energy =    -38780.079410 Ry
     estimated scf accuracy    <          7.1E-10 Ry
     smearing contrib. (-TS)   =       0.00125162 Ry
     internal energy E=F+TS    =   -1986.75981684 Ry

     The total energy is F=E-TS. E is the sum of the following terms:
     one-electron contribution =  -11078.94638036 Ry
     hartree contribution      =    5540.11395040 Ry
     xc contribution           =    -119.25572970 Ry
     ewald contribution        =    4949.91373689 Ry
     one-center paw contrib.   =   -1278.58539408 Ry
      -> PAW hartree energy AE =     105.42098204 Ry
      -> PAW hartree energy PS =    -104.76642964 Ry
      -> PAW xc energy AE      =    -346.09106058 Ry
      -> PAW xc energy PS      =      25.79015943 Ry
      -> total E_H with PAW    =    5540.76850281 Ry
      -> total E_XC with PAW   =    -439.55663085 Ry

     total magnetization       =     0.00 Bohr mag/cell
     absolute magnetization    =     0.00 Bohr mag/cell

     convergence has been achieved in  16 iterations

     negative rho (up, down):  3.122E-03 3.122E-03

     Forces acting on atoms (cartesian axes, Ry/au):

     atom    1 type  1   force =     0.00000000    0.00000038   -0.00000899
     atom    2 type  2   force =    -0.00000018   -0.00000010   -0.05161677
     atom    3 type  2   force =    -0.00000028   -0.00000016    0.05162582
     atom    4 type  1   force =     0.00000033   -0.00000019   -0.00000899
     atom    5 type  2   force =     0.00000000    0.00000000   -0.05161646
     atom    6 type  2   force =     0.00000000    0.00000000    0.05162551
     atom    7 type  1   force =     0.00000000   -0.00000000   -0.00000922
     atom    8 type  2   force =     0.00000018   -0.00000010   -0.05161677
     atom    9 type  2   force =     0.00000028   -0.00000016    0.05162582
     atom   10 type  1   force =    -0.00000033   -0.00000019   -0.00000899
     atom   11 type  2   force =     0.00000000    0.00000020   -0.05161677
     atom   12 type  2   force =     0.00000000    0.00000032    0.05162582
     The non-local contrib.  to forces
     atom    1 type  1   force =     0.00000000    0.00000027   -0.00004338
     atom    2 type  2   force =    -0.00000009   -0.00000005    0.24553903
     atom    3 type  2   force =    -0.00000009   -0.00000005   -0.24553657
     atom    4 type  1   force =     0.00000023   -0.00000013   -0.00004338
     atom    5 type  2   force =     0.00000000    0.00000000    0.24553899
     atom    6 type  2   force =     0.00000000    0.00000000   -0.24553652
     atom    7 type  1   force =     0.00000000    0.00000000   -0.00004288
     atom    8 type  2   force =     0.00000009   -0.00000005    0.24553903
     atom    9 type  2   force =     0.00000009   -0.00000005   -0.24553657
     atom   10 type  1   force =    -0.00000023   -0.00000013   -0.00004338
     atom   11 type  2   force =     0.00000000    0.00000010    0.24553903
     atom   12 type  2   force =    -0.00000000    0.00000010   -0.24553657
     The ionic contribution  to forces
     atom    1 type  1   force =     0.00014042   -0.00002707   -0.00000002
     atom    2 type  2   force =    -0.00004840   -0.00002425  -41.17404572
     atom    3 type  2   force =    -0.00009202    0.00005126   41.17404574
     atom    4 type  1   force =     0.00014042   -0.00002700   -0.00000002
     atom    5 type  2   force =    -0.00004840   -0.00002423  -41.17404574
     atom    6 type  2   force =    -0.00009202    0.00005128   41.17404575
     atom    7 type  1   force =     0.00014042   -0.00002707   -0.00000002
     atom    8 type  2   force =    -0.00004840   -0.00002425  -41.17404572
     atom    9 type  2   force =    -0.00009202    0.00005126   41.17404574
     atom   10 type  1   force =     0.00014042   -0.00002700   -0.00000002
     atom   11 type  2   force =    -0.00004840   -0.00002423  -41.17404574
     atom   12 type  2   force =    -0.00009202    0.00005128   41.17404575
     The local contribution  to forces
     atom    1 type  1   force =     0.00205617   -0.00118495    0.00005369
     atom    2 type  2   force =    -0.00000197   -0.00012734   40.87804462
     atom    3 type  2   force =    -0.00011116    0.00006202  -40.87803687
     atom    4 type  1   force =     0.00205891   -0.00118943    0.00005369
     atom    5 type  2   force =     0.00000000   -0.00012620   40.87804732
     atom    6 type  2   force =    -0.00010933    0.00006308  -40.87803932
     atom    7 type  1   force =     0.00205616   -0.00118803    0.00005380
     atom    8 type  2   force =     0.00000197   -0.00012734   40.87804462
     atom    9 type  2   force =    -0.00010751    0.00006202  -40.87803687
     atom   10 type  1   force =     0.00205358   -0.00118943    0.00005369
     atom   11 type  2   force =     0.00000000   -0.00012392   40.87804462
     atom   12 type  2   force =    -0.00010933    0.00006519  -40.87803687
     The core correction contribution to forces
     atom    1 type  1   force =    -0.00001792    0.00001036    0.00000619
     atom    2 type  2   force =    -0.00000000    0.00000195   -0.00117177
     atom    3 type  2   force =     0.00000169   -0.00000098    0.00117149
     atom    4 type  1   force =    -0.00001791    0.00001035    0.00000619
     atom    5 type  2   force =    -0.00000000    0.00000195   -0.00117176
     atom    6 type  2   force =     0.00000169   -0.00000098    0.00117148
     atom    7 type  1   force =    -0.00001792    0.00001035    0.00000617
     atom    8 type  2   force =     0.00000000    0.00000195   -0.00117177
     atom    9 type  2   force =     0.00000170   -0.00000098    0.00117149
     atom   10 type  1   force =    -0.00001792    0.00001035    0.00000619
     atom   11 type  2   force =    -0.00000000    0.00000196   -0.00117177
     atom   12 type  2   force =     0.00000169   -0.00000097    0.00117149
     The Hubbard contrib.    to forces
     atom    1 type  1   force =     0.00000000    0.00000000    0.00000000
     atom    2 type  2   force =     0.00000000    0.00000000    0.00000000
     atom    3 type  2   force =     0.00000000    0.00000000    0.00000000
     atom    4 type  1   force =     0.00000000    0.00000000    0.00000000
     atom    5 type  2   force =     0.00000000    0.00000000    0.00000000
     atom    6 type  2   force =     0.00000000    0.00000000    0.00000000
     atom    7 type  1   force =     0.00000000    0.00000000    0.00000000
     atom    8 type  2   force =     0.00000000    0.00000000    0.00000000
     atom    9 type  2   force =     0.00000000    0.00000000    0.00000000
     atom   10 type  1   force =     0.00000000    0.00000000    0.00000000
     atom   11 type  2   force =     0.00000000    0.00000000    0.00000000
     atom   12 type  2   force =     0.00000000    0.00000000    0.00000000
     The SCF correction term to forces
     atom    1 type  1   force =     0.00000000   -0.00000291   -0.00003121
     atom    2 type  2   force =     0.00000189    0.00000109    0.00001136
     atom    3 type  2   force =     0.00000165    0.00000095   -0.00002372
     atom    4 type  1   force =    -0.00000251    0.00000145   -0.00003121
     atom    5 type  2   force =    -0.00000000    0.00000000    0.00000898
     atom    6 type  2   force =    -0.00000000    0.00000000   -0.00002162
     atom    7 type  1   force =     0.00000000   -0.00000000   -0.00003203
     atom    8 type  2   force =    -0.00000189    0.00000109    0.00001136
     atom    9 type  2   force =    -0.00000165    0.00000095   -0.00002372
     atom   10 type  1   force =     0.00000252    0.00000145   -0.00003121
     atom   11 type  2   force =    -0.00000000   -0.00000218    0.00001136
     atom   12 type  2   force =    -0.00000000   -0.00000191   -0.00002372

     Total force =     0.146007     Total SCF correction =     0.000081


     Computing stress (Cartesian axis) and pressure


     negative rho (up, down):  3.122E-03 3.122E-03
          total   stress  (Ry/bohr**3)                   (kbar)     P=       12.93
   0.00006857   0.00000000   0.00000000           10.09        0.00        0.00
   0.00000000   0.00006857  -0.00000000            0.00       10.09       -0.00
   0.00000000   0.00000000   0.00012664            0.00        0.00       18.63

     kinetic stress (kbar)   2933.14     -0.00      0.00
                               -0.00   2933.14      0.00
                                0.00      0.00   2979.73

     local   stress (kbar)-178076.32     -0.02      0.01
                               -0.02-178076.32     -0.01
                                0.01     -0.01 176369.39

     nonloc. stress (kbar)   1339.90      0.00      0.00
                                0.00   1339.90      0.00
                                0.00      0.00   1331.15

     hartree stress (kbar)  88047.33      0.00     -0.00
                                0.00  88047.33     -0.00
                               -0.00     -0.00 -86996.24

     exc-cor stress (kbar)   -250.50      0.00     -0.00
                                0.00   -250.50      0.00
                               -0.00      0.00   -251.28

     corecor stress (kbar)   -329.10      0.00      0.00
                                0.00   -329.10     -0.00
                                0.00     -0.00   -329.39

     ewald   stress (kbar)  86345.64      0.03     -0.01
                                0.03  86345.65      0.01
                               -0.01      0.01 -93084.73

     hubbard stress (kbar)      0.00      0.00      0.00
                                0.00      0.00      0.00
                                0.00      0.00      0.00

     DFT-D   stress (kbar)      0.00      0.00      0.00
                                0.00      0.00      0.00
                                0.00      0.00      0.00

     XDM     stress (kbar)      0.00      0.00      0.00
                                0.00      0.00      0.00
                                0.00      0.00      0.00

     dft-nl  stress (kbar)      0.00      0.00      0.00
                                0.00      0.00      0.00
                                0.00      0.00      0.00

     TS-vdW  stress (kbar)      0.00      0.00      0.00
                                0.00      0.00      0.00
                                0.00      0.00      0.00



     Writing output data file ./out/MoS2.save/

     init_run     :     46.12s CPU     47.69s WALL (       1 calls)
     electrons    :   2076.03s CPU   2136.34s WALL (       1 calls)
     forces       :     18.43s CPU     19.85s WALL (       1 calls)
     stress       :     67.19s CPU     69.54s WALL (       1 calls)

     Called by init_run:
     wfcinit      :     37.83s CPU     38.63s WALL (       1 calls)
     wfcinit:atom :      0.27s CPU      0.27s WALL (      10 calls)
     wfcinit:wfcr :     36.45s CPU     37.23s WALL (      10 calls)
     potinit      :      3.35s CPU      3.51s WALL (       1 calls)
     hinit0       :      1.83s CPU      1.85s WALL (       1 calls)

     Called by electrons:
     c_bands      :   1581.37s CPU   1621.04s WALL (      17 calls)
     sum_band     :    401.88s CPU    412.82s WALL (      17 calls)
     v_of_rho     :     23.00s CPU     23.98s WALL (      17 calls)
     v_h          :      1.20s CPU      1.25s WALL (      17 calls)
     v_xc         :     24.27s CPU     25.40s WALL (      19 calls)
     newd         :     45.91s CPU     54.97s WALL (      17 calls)
     PAW_pot      :     17.21s CPU     17.21s WALL (      17 calls)
     mix_rho      :      7.59s CPU      7.78s WALL (      17 calls)

     Called by c_bands:
     init_us_2    :     15.02s CPU     15.05s WALL (     370 calls)
     cegterg      :   1541.16s CPU   1580.72s WALL (     170 calls)

     Called by sum_band:
     sum_band:wei :      0.01s CPU      0.01s WALL (      17 calls)
     sum_band:loo :    268.00s CPU    270.69s WALL (      17 calls)
     sum_band:buf :      2.59s CPU      2.59s WALL (     170 calls)
     sum_band:ini :      6.99s CPU      6.99s WALL (     170 calls)
     sum_band:cal :     37.81s CPU     38.16s WALL (     170 calls)
     sum_band:bec :      0.03s CPU      0.03s WALL (     170 calls)
     addusdens    :    129.87s CPU    137.81s WALL (      17 calls)
     addusd:skk   :      0.50s CPU      0.52s WALL (      34 calls)
     addusd:dgemm :     19.25s CPU     25.52s WALL (      68 calls)
     addusd:qvan2 :    109.12s CPU    109.13s WALL (      68 calls)

     Called by *egterg:
     cdiaghg      :      3.15s CPU      3.17s WALL (     747 calls)
     cegterg:over :     82.72s CPU     93.99s WALL (     587 calls)
     cegterg:upda :     57.08s CPU     57.22s WALL (     587 calls)
     cegterg:last :     97.03s CPU     97.17s WALL (     361 calls)
     cdiaghg:chol :      0.25s CPU      0.25s WALL (     747 calls)
     cdiaghg:inve :      0.03s CPU      0.03s WALL (     747 calls)
     cdiaghg:para :      0.69s CPU      0.70s WALL (    1494 calls)
     h_psi        :   1221.43s CPU   1246.61s WALL (     767 calls)
     s_psi        :     75.22s CPU     75.25s WALL (     767 calls)
     g_psi        :      2.90s CPU      2.91s WALL (     587 calls)

     Called by h_psi:
     h_psi:calbec :    116.71s CPU    123.00s WALL (     767 calls)
     vloc_psi     :   1022.37s CPU   1040.94s WALL (     767 calls)
     add_vuspsi   :     75.56s CPU     75.58s WALL (     767 calls)

     General routines
     calbec       :    165.89s CPU    173.39s WALL (     987 calls)
     fft          :     24.26s CPU     25.63s WALL (     465 calls)
     ffts         :      2.46s CPU      2.54s WALL (      68 calls)
     fftw         :    969.10s CPU    985.37s WALL (   65986 calls)
     interpolate  :      3.54s CPU      3.64s WALL (      34 calls)

     Parallel routines
     fft_scatt_xy :    226.82s CPU    227.51s WALL (   66519 calls)
     fft_scatt_yz :    133.04s CPU    144.19s WALL (   66519 calls)

     PAW routines
     PAW_pot      :     17.21s CPU     17.21s WALL (      17 calls)
     PAW_symme    :      0.02s CPU      0.02s WALL (      34 calls)

     PWSCF        :  36m48.38s CPU  37m54.71s WALL


   This run was terminated on:  13:31:25  31Mar2024            

=------------------------------------------------------------------------------=
   JOB DONE.
=------------------------------------------------------------------------------=
