
     Program PWSCF v.6.4.1 starts on  4Apr2023 at 14:47:31 

     This program is part of the open-source Quantum ESPRESSO suite
     for quantum simulation of materials; please cite
         "P. Giannozzi et al., J. Phys.:Condens. Matter 21 395502 (2009);
         "P. Giannozzi et al., J. Phys.:Condens. Matter 29 465901 (2017);
          URL http://www.quantum-espresso.org", 
     in publications or presentations arising from this work. More details at
     http://www.quantum-espresso.org/quote

     Parallel version (MPI), running on     8 processors

     MPI processes distributed on     1 nodes
     R & G space division:  proc/nbgrp/npool/nimage =       8
     Waiting for input...
     Reading input from standard input
Warning: card &CELL ignored
Warning: card / ignored

     Current dimensions of program PWSCF are:
     Max number of different atomic species (ntypx) = 10
     Max number of k-points (npk) =  40000
     Max angular momentum in pseudopotentials (lmaxx) =  3
               file Zn.pbe-dnl-kjpaw_psl.1.0.0.UPF: wavefunction(s)  4S 3D renormalized
               file S.pbe-n-kjpaw_psl.1.0.0.UPF: wavefunction(s)  3S 3P renormalized
               file Fe.pbe-spn-kjpaw_psl.1.0.0.UPF: wavefunction(s)  3P 3D renormalized
               file H.pbe-kjpaw_psl.1.0.0.UPF: wavefunction(s)  1S renormalized

     Subspace diagonalization in iterative solution of the eigenvalue problem:
     one sub-group per band group will be used
     scalapack distributed-memory algorithm (size of sub-group:  2*  2 procs)

 
     Parallelization info
     --------------------
     sticks:   dense  smooth     PW     G-vecs:    dense   smooth      PW
     Min         352     352     94                64074    64074    8970
     Max         353     353     95                64088    64088    8981
     Sum        2817    2817    755               512653   512653   71799
 


     bravais-lattice index     =            0
     lattice parameter (alat)  =      14.4388  a.u.
     unit-cell volume          =    8163.2978 (a.u.)^3
     number of atoms/cell      =           34
     number of atomic types    =            4
     number of electrons       =       305.00
     number of Kohn-Sham states=          184
     kinetic-energy cutoff     =      60.0000  Ry
     charge density cutoff     =     240.0000  Ry
     convergence threshold     =      1.0E-06
     mixing beta               =       0.2000
     number of iterations used =            8  local-TF  mixing
     Exchange-correlation      = SLA PW PBX PBC ( 1  4  3  4 0 0)
     nstep                     =          500


     celldm(1)=  14.438821  celldm(2)=   0.000000  celldm(3)=   0.000000
     celldm(4)=   0.000000  celldm(5)=   0.000000  celldm(6)=   0.000000

     crystal axes: (cart. coord. in units of alat)
               a(1) = (   1.000000   0.000000   0.000000 )  
               a(2) = (   0.000000   0.706392   0.000000 )  
               a(3) = (   0.000000   0.000000   3.839055 )  

     reciprocal axes: (cart. coord. in units 2 pi/alat)
               b(1) = (  1.000000  0.000000  0.000000 )  
               b(2) = (  0.000000  1.415644  0.000000 )  
               b(3) = (  0.000000  0.000000  0.260481 )  


     PseudoPot. # 1 for Zn read from file:
     ./Zn.pbe-dnl-kjpaw_psl.1.0.0.UPF
     MD5 check sum: c608214d9520ac179f507641260889e3
     Pseudo is Projector augmented-wave + core cor, Zval = 12.0
     Generated using "atomic" code by A. Dal Corso v.6.2.2
     Shape of augmentation charge: PSQ
     Using radial grid of 1201 points,  6 beta functions with: 
                l(1) =   0
                l(2) =   0
                l(3) =   1
                l(4) =   1
                l(5) =   2
                l(6) =   2
     Q(r) pseudized with 0 coefficients 


     PseudoPot. # 2 for S  read from file:
     ./S.pbe-n-kjpaw_psl.1.0.0.UPF
     MD5 check sum: fb45dfebcf3e72a4e1bd4a866ec2e262
     Pseudo is Projector augmented-wave + core cor, Zval =  6.0
     Generated using "atomic" code by A. Dal Corso v.6.3
     Shape of augmentation charge: PSQ
     Using radial grid of 1151 points,  6 beta functions with: 
                l(1) =   0
                l(2) =   0
                l(3) =   1
                l(4) =   1
                l(5) =   2
                l(6) =   2
     Q(r) pseudized with 0 coefficients 


     PseudoPot. # 3 for Fe read from file:
     ./Fe.pbe-spn-kjpaw_psl.1.0.0.UPF
     MD5 check sum: fc81f059e5c5069939230b1155715ae8
     Pseudo is Projector augmented-wave + core cor, Zval = 16.0
     Generated using "atomic" code by A. Dal Corso v.6.3
     Shape of augmentation charge: PSQ
     Using radial grid of 1191 points,  6 beta functions with: 
                l(1) =   0
                l(2) =   0
                l(3) =   1
                l(4) =   1
                l(5) =   2
                l(6) =   2
     Q(r) pseudized with 0 coefficients 


     PseudoPot. # 4 for H  read from file:
     ./H.pbe-kjpaw_psl.1.0.0.UPF
     MD5 check sum: d81a744832360e4a8af0b0b5b123bc2a
     Pseudo is Projector augmented-wave, Zval =  1.0
     Generated using "atomic" code by A. Dal Corso v.6.3MaX
     Shape of augmentation charge: PSQ
     Using radial grid of  929 points,  2 beta functions with: 
                l(1) =   0
                l(2) =   0
     Q(r) pseudized with 0 coefficients 


     atomic species   valence    mass     pseudopotential
        Zn            12.00    65.38000     Zn( 1.00)
        S              6.00    32.06000     S ( 1.00)
        Fe            16.00    55.84500     Fe( 1.00)
        H              1.00     1.00800     H ( 1.00)

     No symmetry found



   Cartesian axes

     site n.     atom                  positions (alat units)
         1           Zn  tau(   1) = (   0.0000000   0.0383459   1.0905770  )
         2           Zn  tau(   2) = (   0.5000000   0.0383458   1.0905768  )
         3           Zn  tau(   3) = (   0.2499999   0.3428188   1.2733860  )
         4           Zn  tau(   4) = (   0.7500001   0.3428188   1.2733860  )
         5           S   tau(   5) = (   1.0000000   0.5219041   1.2913777  )
         6           S   tau(   6) = (   0.2500000   0.1795757   1.0153583  )
         7           S   tau(   7) = (   0.5000000   0.5219043   1.2913777  )
         8           S   tau(   8) = (   0.7500000   0.1795757   1.0153583  )
         9           Zn  tau(   9) = (   0.5000000  -0.0068696   1.5451748  )
        10           Zn  tau(  10) = (   0.0000000  -0.0068695   1.5451744  )
        11           Zn  tau(  11) = (   0.7500000   0.3465995   1.7887002  )
        12           Zn  tau(  12) = (   0.2500000   0.3465995   1.7887002  )
        13           S   tau(  13) = (   0.5000000   0.5246969   1.7959973  )
        14           S   tau(  14) = (   0.7499999   0.1720982   1.5360298  )
        15           S   tau(  15) = (   0.0000000   0.5246972   1.7959971  )
        16           S   tau(  16) = (   0.2500001   0.1720982   1.5360298  )
        17           Zn  tau(  17) = (   0.0000000  -0.0065974   2.0503550  )
        18           Zn  tau(  18) = (   0.5000000  -0.0065974   2.0503552  )
        19           Zn  tau(  19) = (   0.2500085   0.3562602   2.2898296  )
        20           Zn  tau(  20) = (   0.7502773   0.3345841   2.3035591  )
        21           S   tau(  21) = (  -0.0052426   0.5233488   2.3040582  )
        22           S   tau(  22) = (   0.2500000   0.1715014   2.0430579  )
        23           S   tau(  23) = (   0.5055739   0.5230765   2.3036699  )
        24           S   tau(  24) = (   0.7500000   0.1715014   2.0430579  )
        25           Zn  tau(  25) = (   0.5018431  -0.0136293   2.5625281  )
        26           Zn  tau(  26) = (  -0.0007393  -0.0133430   2.5628835  )
        27           Zn  tau(  27) = (   0.7504520   0.4134868   2.7575912  )
        28           Zn  tau(  28) = (   0.2498032   0.3182582   2.8074147  )
        29           S   tau(  29) = (   0.4806275   0.5221407   2.8385416  )
        30           S   tau(  30) = (   0.7505438   0.1692394   2.5673130  )
        31           S   tau(  31) = (   0.0196385   0.5221949   2.8400388  )
        32           S   tau(  32) = (   0.2509517   0.1669532   2.5321505  )
        33           Fe  tau(  33) = (   0.2500471  -0.0108450   2.7869418  )
        34           H   tau(  34) = (   0.2479628   0.1293101   2.9378721  )

     number of k points=    13  Marzari-Vanderbilt smearing, width (Ry)=  0.0070
                       cart. coord. in units 2pi/alat
        k(    1) = (   0.0000000   0.0000000   0.0000000), wk =   0.0800000
        k(    2) = (   0.0000000   0.2831287   0.0000000), wk =   0.1600000
        k(    3) = (   0.0000000   0.5662575   0.0000000), wk =   0.1600000
        k(    4) = (   0.2000000   0.0000000   0.0000000), wk =   0.1600000
        k(    5) = (   0.2000000   0.2831287   0.0000000), wk =   0.1600000
        k(    6) = (   0.2000000   0.5662575   0.0000000), wk =   0.1600000
        k(    7) = (   0.4000000   0.0000000   0.0000000), wk =   0.1600000
        k(    8) = (   0.4000000   0.2831287   0.0000000), wk =   0.1600000
        k(    9) = (   0.4000000   0.5662575   0.0000000), wk =   0.1600000
        k(   10) = (  -0.2000000   0.2831287   0.0000000), wk =   0.1600000
        k(   11) = (  -0.2000000   0.5662575   0.0000000), wk =   0.1600000
        k(   12) = (  -0.4000000   0.2831287   0.0000000), wk =   0.1600000
        k(   13) = (  -0.4000000   0.5662575   0.0000000), wk =   0.1600000

     Dense  grid:   512653 G-vectors     FFT dimensions: (  72,  54, 288)

     Estimated max dynamical RAM per process >     721.41 MB

     Estimated total dynamical RAM >       5.64 GB

     Check: negative core charge=   -0.000004

     Initial potential from superposition of free atoms

     starting charge  304.93944, renormalised to  305.00000

     negative rho (up, down):  1.801E-03 0.000E+00
     Starting wfcs are  219 randomized atomic wfcs
     Checking if some PAW data can be deallocated... 

     total cpu time spent up to now is       27.2 secs

     Self-consistent Calculation

     iteration #  1     ecut=    60.00 Ry     beta= 0.20
     Davidson diagonalization with overlap
     ethr =  1.00E-02,  avg # of iterations =  3.5

     negative rho (up, down):  4.225E-04 0.000E+00

     total cpu time spent up to now is      158.0 secs

     total energy              =   -5292.23745246 Ry
     Harris-Foulkes estimate   =   -5292.57188923 Ry
     estimated scf accuracy    <       3.51399483 Ry

     iteration #  2     ecut=    60.00 Ry     beta= 0.20
     Davidson diagonalization with overlap
     ethr =  1.15E-03,  avg # of iterations =  2.0

     negative rho (up, down):  1.223E-04 0.000E+00

     total cpu time spent up to now is      292.8 secs

     total energy              =   -5292.25181933 Ry
     Harris-Foulkes estimate   =   -5292.42321402 Ry
     estimated scf accuracy    <       1.19545132 Ry

     iteration #  3     ecut=    60.00 Ry     beta= 0.20
     Davidson diagonalization with overlap
     ethr =  3.92E-04,  avg # of iterations =  4.2

     negative rho (up, down):  1.097E-04 0.000E+00

     total cpu time spent up to now is      433.7 secs

     total energy              =   -5292.12717792 Ry
     Harris-Foulkes estimate   =   -5292.30258117 Ry
     estimated scf accuracy    <       0.49236825 Ry

     iteration #  4     ecut=    60.00 Ry     beta= 0.20
     Davidson diagonalization with overlap
     ethr =  1.61E-04,  avg # of iterations =  6.9

     negative rho (up, down):  8.399E-05 0.000E+00

     total cpu time spent up to now is      608.3 secs

     total energy              =   -5292.18681782 Ry
     Harris-Foulkes estimate   =   -5292.20595045 Ry
     estimated scf accuracy    <       0.09096911 Ry

     iteration #  5     ecut=    60.00 Ry     beta= 0.20
     Davidson diagonalization with overlap
     ethr =  2.98E-05,  avg # of iterations =  4.6

     negative rho (up, down):  7.355E-05 0.000E+00

     total cpu time spent up to now is      760.2 secs

     total energy              =   -5292.19245334 Ry
     Harris-Foulkes estimate   =   -5292.19845045 Ry
     estimated scf accuracy    <       0.05551573 Ry

     iteration #  6     ecut=    60.00 Ry     beta= 0.20
     Davidson diagonalization with overlap
     ethr =  1.82E-05,  avg # of iterations =  5.5

     negative rho (up, down):  5.457E-05 0.000E+00

     total cpu time spent up to now is      904.3 secs

     total energy              =   -5292.19228400 Ry
     Harris-Foulkes estimate   =   -5292.19474376 Ry
     estimated scf accuracy    <       0.01709866 Ry

     iteration #  7     ecut=    60.00 Ry     beta= 0.20
     Davidson diagonalization with overlap
     ethr =  5.61E-06,  avg # of iterations = 10.2

     negative rho (up, down):  5.283E-05 0.000E+00

     total cpu time spent up to now is     1081.1 secs

     total energy              =   -5292.19290333 Ry
     Harris-Foulkes estimate   =   -5292.19388315 Ry
     estimated scf accuracy    <       0.01759089 Ry

     iteration #  8     ecut=    60.00 Ry     beta= 0.20
     Davidson diagonalization with overlap
     ethr =  5.61E-06,  avg # of iterations =  2.1

     negative rho (up, down):  6.060E-05 0.000E+00

     total cpu time spent up to now is     1209.8 secs

     total energy              =   -5292.19089912 Ry
     Harris-Foulkes estimate   =   -5292.19333201 Ry
     estimated scf accuracy    <       0.01161367 Ry

     iteration #  9     ecut=    60.00 Ry     beta= 0.20
     Davidson diagonalization with overlap
     ethr =  3.81E-06,  avg # of iterations =  8.7

     negative rho (up, down):  1.097E-04 0.000E+00

     total cpu time spent up to now is     1365.7 secs

     total energy              =   -5292.19140931 Ry
     Harris-Foulkes estimate   =   -5292.19190337 Ry
     estimated scf accuracy    <       0.00414509 Ry

     iteration # 10     ecut=    60.00 Ry     beta= 0.20
     Davidson diagonalization with overlap
     ethr =  1.36E-06,  avg # of iterations =  6.2

     negative rho (up, down):  2.835E-04 0.000E+00

     total cpu time spent up to now is     1519.4 secs

     total energy              =   -5292.19172382 Ry
     Harris-Foulkes estimate   =   -5292.19185845 Ry
     estimated scf accuracy    <       0.00463807 Ry

     iteration # 11     ecut=    60.00 Ry     beta= 0.20
     Davidson diagonalization with overlap
     ethr =  1.36E-06,  avg # of iterations =  4.5

     negative rho (up, down):  1.054E-03 0.000E+00

     total cpu time spent up to now is     1661.2 secs

     total energy              =   -5292.19137608 Ry
     Harris-Foulkes estimate   =   -5292.19176194 Ry
     estimated scf accuracy    <       0.00355377 Ry

     iteration # 12     ecut=    60.00 Ry     beta= 0.20
     Davidson diagonalization with overlap
     ethr =  1.17E-06,  avg # of iterations =  8.6

     negative rho (up, down):  1.927E-03 0.000E+00

     total cpu time spent up to now is     1873.1 secs

     total energy              =   -5292.19154801 Ry
     Harris-Foulkes estimate   =   -5292.19158224 Ry
     estimated scf accuracy    <       0.00159622 Ry

     iteration # 13     ecut=    60.00 Ry     beta= 0.20
     Davidson diagonalization with overlap
     ethr =  5.23E-07,  avg # of iterations =  2.0

     negative rho (up, down):  2.557E-03 0.000E+00

     total cpu time spent up to now is     2092.2 secs

     total energy              =   -5292.19162370 Ry
     Harris-Foulkes estimate   =   -5292.19161023 Ry
     estimated scf accuracy    <       0.00144752 Ry

     iteration # 14     ecut=    60.00 Ry     beta= 0.20
     Davidson diagonalization with overlap
     ethr =  4.75E-07,  avg # of iterations =  3.6

     negative rho (up, down):  5.120E-03 0.000E+00

     total cpu time spent up to now is     2346.5 secs

     total energy              =   -5292.19156543 Ry
     Harris-Foulkes estimate   =   -5292.19166705 Ry
     estimated scf accuracy    <       0.00105799 Ry

     iteration # 15     ecut=    60.00 Ry     beta= 0.20
     Davidson diagonalization with overlap
     ethr =  3.47E-07,  avg # of iterations =  7.8

     negative rho (up, down):  6.967E-03 0.000E+00

     total cpu time spent up to now is     2752.1 secs

     total energy              =   -5292.19161210 Ry
     Harris-Foulkes estimate   =   -5292.19164724 Ry
     estimated scf accuracy    <       0.00068551 Ry

     iteration # 16     ecut=    60.00 Ry     beta= 0.20
     Davidson diagonalization with overlap
     ethr =  2.25E-07,  avg # of iterations =  1.2

     negative rho (up, down):  8.196E-03 0.000E+00

     total cpu time spent up to now is     3088.4 secs

     total energy              =   -5292.19159510 Ry
     Harris-Foulkes estimate   =   -5292.19162625 Ry
     estimated scf accuracy    <       0.00053818 Ry

     iteration # 17     ecut=    60.00 Ry     beta= 0.20
     Davidson diagonalization with overlap
     ethr =  1.76E-07,  avg # of iterations =  6.5

     negative rho (up, down):  8.816E-03 0.000E+00

     total cpu time spent up to now is     3476.1 secs

     total energy              =   -5292.19159047 Ry
     Harris-Foulkes estimate   =   -5292.19160929 Ry
     estimated scf accuracy    <       0.00040453 Ry

     iteration # 18     ecut=    60.00 Ry     beta= 0.20
     Davidson diagonalization with overlap
     ethr =  1.33E-07,  avg # of iterations =  1.0

     negative rho (up, down):  8.988E-03 0.000E+00

     total cpu time spent up to now is     3793.3 secs

     total energy              =   -5292.19157053 Ry
     Harris-Foulkes estimate   =   -5292.19160225 Ry
     estimated scf accuracy    <       0.00031089 Ry

     iteration # 19     ecut=    60.00 Ry     beta= 0.20
     Davidson diagonalization with overlap
     ethr =  1.02E-07,  avg # of iterations =  2.5

     negative rho (up, down):  9.433E-03 0.000E+00

     total cpu time spent up to now is     4133.3 secs

     total energy              =   -5292.19155656 Ry
     Harris-Foulkes estimate   =   -5292.19159296 Ry
     estimated scf accuracy    <       0.00023123 Ry

     iteration # 20     ecut=    60.00 Ry     beta= 0.20
     Davidson diagonalization with overlap
     ethr =  7.58E-08,  avg # of iterations =  5.2

     negative rho (up, down):  9.009E-03 0.000E+00

     total cpu time spent up to now is     4508.1 secs

     total energy              =   -5292.19155430 Ry
     Harris-Foulkes estimate   =   -5292.19157834 Ry
     estimated scf accuracy    <       0.00010699 Ry

     iteration # 21     ecut=    60.00 Ry     beta= 0.20
     Davidson diagonalization with overlap
     ethr =  3.51E-08,  avg # of iterations =  1.9

     negative rho (up, down):  8.475E-03 0.000E+00

     total cpu time spent up to now is     4839.3 secs

     total energy              =   -5292.19154286 Ry
     Harris-Foulkes estimate   =   -5292.19155818 Ry
     estimated scf accuracy    <       0.00008962 Ry

     iteration # 22     ecut=    60.00 Ry     beta= 0.20
     Davidson diagonalization with overlap
     ethr =  2.94E-08,  avg # of iterations =  1.0

     negative rho (up, down):  7.476E-03 0.000E+00

     total cpu time spent up to now is     5168.0 secs

     total energy              =   -5292.19153019 Ry
     Harris-Foulkes estimate   =   -5292.19154505 Ry
     estimated scf accuracy    <       0.00007442 Ry

     iteration # 23     ecut=    60.00 Ry     beta= 0.20
     Davidson diagonalization with overlap
     ethr =  2.44E-08,  avg # of iterations =  1.0

     negative rho (up, down):  5.245E-03 0.000E+00

     total cpu time spent up to now is     5536.9 secs

     total energy              =   -5292.19151492 Ry
     Harris-Foulkes estimate   =   -5292.19153133 Ry
     estimated scf accuracy    <       0.00006367 Ry

     iteration # 24     ecut=    60.00 Ry     beta= 0.20
     Davidson diagonalization with overlap
     ethr =  2.09E-08,  avg # of iterations =  5.0

     negative rho (up, down):  4.218E-03 0.000E+00

     total cpu time spent up to now is     5895.3 secs

     total energy              =   -5292.19151206 Ry
     Harris-Foulkes estimate   =   -5292.19151642 Ry
     estimated scf accuracy    <       0.00004793 Ry

     iteration # 25     ecut=    60.00 Ry     beta= 0.20
     Davidson diagonalization with overlap
     ethr =  1.57E-08,  avg # of iterations =  1.0

     negative rho (up, down):  4.155E-03 0.000E+00

     total cpu time spent up to now is     6233.8 secs

     total energy              =   -5292.19151060 Ry
     Harris-Foulkes estimate   =   -5292.19151300 Ry
     estimated scf accuracy    <       0.00004036 Ry

     iteration # 26     ecut=    60.00 Ry     beta= 0.20
     Davidson diagonalization with overlap
     ethr =  1.32E-08,  avg # of iterations =  1.0

     negative rho (up, down):  3.954E-03 0.000E+00

     total cpu time spent up to now is     6573.8 secs

     total energy              =   -5292.19150906 Ry
     Harris-Foulkes estimate   =   -5292.19151217 Ry
     estimated scf accuracy    <       0.00003311 Ry

     iteration # 27     ecut=    60.00 Ry     beta= 0.20
     Davidson diagonalization with overlap
     ethr =  1.09E-08,  avg # of iterations =  1.0

     negative rho (up, down):  4.145E-03 0.000E+00

     total cpu time spent up to now is     6921.6 secs

     total energy              =   -5292.19150680 Ry
     Harris-Foulkes estimate   =   -5292.19151008 Ry
     estimated scf accuracy    <       0.00002420 Ry

     iteration # 28     ecut=    60.00 Ry     beta= 0.20
     Davidson diagonalization with overlap
     ethr =  7.94E-09,  avg # of iterations =  1.4

     negative rho (up, down):  4.244E-03 0.000E+00

     total cpu time spent up to now is     7264.1 secs

     total energy              =   -5292.19150619 Ry
     Harris-Foulkes estimate   =   -5292.19150778 Ry
     estimated scf accuracy    <       0.00001706 Ry

     iteration # 29     ecut=    60.00 Ry     beta= 0.20
     Davidson diagonalization with overlap
     ethr =  5.59E-09,  avg # of iterations =  1.0

     negative rho (up, down):  4.135E-03 0.000E+00

     total cpu time spent up to now is     7635.8 secs

     total energy              =   -5292.19150591 Ry
     Harris-Foulkes estimate   =   -5292.19150670 Ry
     estimated scf accuracy    <       0.00001234 Ry

     iteration # 30     ecut=    60.00 Ry     beta= 0.20
     Davidson diagonalization with overlap
     ethr =  4.05E-09,  avg # of iterations =  1.4

     negative rho (up, down):  4.011E-03 0.000E+00

     total cpu time spent up to now is     7984.1 secs

     total energy              =   -5292.19150585 Ry
     Harris-Foulkes estimate   =   -5292.19150644 Ry
     estimated scf accuracy    <       0.00000714 Ry

     iteration # 31     ecut=    60.00 Ry     beta= 0.20
     Davidson diagonalization with overlap
     ethr =  2.34E-09,  avg # of iterations =  1.1

     negative rho (up, down):  4.004E-03 0.000E+00

     total cpu time spent up to now is     8315.7 secs

     total energy              =   -5292.19150534 Ry
     Harris-Foulkes estimate   =   -5292.19150602 Ry
     estimated scf accuracy    <       0.00000348 Ry

     iteration # 32     ecut=    60.00 Ry     beta= 0.20
     Davidson diagonalization with overlap
     ethr =  1.14E-09,  avg # of iterations =  2.0

     negative rho (up, down):  4.047E-03 0.000E+00

     total cpu time spent up to now is     8698.1 secs

     total energy              =   -5292.19150529 Ry
     Harris-Foulkes estimate   =   -5292.19150559 Ry
     estimated scf accuracy    <       0.00000141 Ry

     iteration # 33     ecut=    60.00 Ry     beta= 0.20
     Davidson diagonalization with overlap
     ethr =  4.62E-10,  avg # of iterations =  1.8

     negative rho (up, down):  4.114E-03 0.000E+00

     total cpu time spent up to now is     8999.8 secs

     End of self-consistent calculation

          k = 0.0000 0.0000 0.0000 ( 64099 PWs)   bands (ev):

   -84.3193 -50.6675 -50.3610 -50.3116 -12.7024 -12.5291 -12.2692 -11.9593
   -11.8674 -11.8435 -11.7572 -11.7318 -11.7205 -11.6318 -11.6045 -11.5915
   -11.5512 -11.4270 -11.4071 -11.1919  -6.1950  -6.0283  -6.0107  -5.9918
    -5.9681  -5.9561  -5.9471  -5.9433  -5.9371  -5.9241  -5.9062  -5.9011
    -5.8998  -5.8910  -5.8710  -5.8523  -5.8463  -5.8460  -5.8384  -5.8248
    -5.8107  -5.8019  -5.7752  -5.7680  -5.7616  -5.7589  -5.7430  -5.7236
    -5.7120  -5.7080  -5.6870  -5.6588  -5.6562  -5.6437  -5.6389  -5.6363
    -5.6326  -5.6218  -5.6200  -5.6129  -5.6060  -5.6035  -5.5910  -5.5899
    -5.5822  -5.5548  -5.5460  -5.5423  -5.5154  -5.4963  -5.4942  -5.4867
    -5.4808  -5.4723  -5.4677  -5.4633  -5.4520  -5.4484  -5.4433  -5.4390
    -5.4253  -5.4159  -5.4126  -5.4090  -5.3943  -5.3943  -5.3867  -5.3778
    -5.3774  -5.3696  -5.3476  -5.3265  -5.3191  -5.2788  -5.2559  -5.2509
    -5.2288  -5.2045  -5.1812  -5.1557  -4.2782  -4.2190  -4.1518  -4.0952
    -4.0306  -3.8701  -3.8384  -3.7274  -3.6549  -3.6321  -3.6048  -3.5601
    -3.1691  -2.8225  -2.6917  -2.4820  -2.2956  -2.2694  -2.2480  -2.1497
    -2.0818  -2.0397  -2.0276  -1.9213  -1.9172  -1.8881  -1.8143  -1.7932
    -1.7331  -1.6067  -1.6010  -1.5536  -1.4825  -1.3126  -1.2746  -1.2183
    -1.1300  -1.0784  -0.9027  -0.7410  -0.7109  -0.5695  -0.5021  -0.4629
    -0.1218  -0.0201   0.1400   0.1596   0.3111   1.4066   1.7095   1.7319
     1.8852   1.9043   2.6651   3.1612   3.4357   3.5024   3.8333   3.9532
     4.2267   4.3302   4.3764   4.4145   4.4569   4.5035   4.6832   4.7860
     4.8095   4.8540   4.9120   5.1020   5.1618   5.1830   5.2502   5.4044
     5.4106   5.5336   5.6584   5.9757   6.1275   6.3285   6.3610   6.4147

          k = 0.0000 0.2831 0.0000 ( 64113 PWs)   bands (ev):

   -84.3193 -50.6675 -50.3610 -50.3116 -12.6067 -12.4457 -12.2094 -11.9376
   -11.8586 -11.8353 -11.7514 -11.7498 -11.7203 -11.6760 -11.6717 -11.6279
   -11.5960 -11.4697 -11.4242 -11.1888  -6.1442  -6.0272  -5.9732  -5.9701
    -5.9647  -5.9378  -5.9181  -5.9173  -5.9115  -5.9094  -5.9012  -5.8883
    -5.8862  -5.8689  -5.8675  -5.8488  -5.8474  -5.8393  -5.8325  -5.8234
    -5.8110  -5.7845  -5.7840  -5.7717  -5.7673  -5.7541  -5.7469  -5.7222
    -5.7190  -5.7133  -5.6995  -5.6759  -5.6684  -5.6584  -5.6580  -5.6407
    -5.6227  -5.6213  -5.6174  -5.6084  -5.6083  -5.5822  -5.5806  -5.5756
    -5.5672  -5.5565  -5.5378  -5.5281  -5.5119  -5.4978  -5.4955  -5.4925
    -5.4811  -5.4753  -5.4590  -5.4564  -5.4557  -5.4408  -5.4327  -5.4308
    -5.4226  -5.4131  -5.4120  -5.4083  -5.4015  -5.3942  -5.3800  -5.3751
    -5.3662  -5.3453  -5.3412  -5.3226  -5.3068  -5.2669  -5.2576  -5.2303
    -5.2236  -5.2058  -5.1990  -5.1979  -4.4223  -4.3129  -4.2021  -4.1602
    -4.1161  -4.0966  -4.0670  -4.0530  -3.9578  -3.8533  -3.7920  -3.7789
    -3.5028  -2.8992  -2.4334  -2.2949  -2.2377  -2.1820  -2.1414  -2.1349
    -2.0667  -2.0451  -1.9504  -1.8607  -1.8194  -1.7919  -1.6922  -1.6436
    -1.5736  -1.4924  -1.4835  -1.3894  -1.3533  -1.2584  -1.2047  -1.1601
    -1.0450  -0.9217  -0.8894  -0.7162  -0.6543  -0.5403  -0.5272  -0.4861
    -0.2083  -0.1272  -0.0149   0.0177   0.0821   1.3528   1.7689   1.8254
     1.9935   2.1971   3.0226   3.3211   3.6503   3.7744   3.8690   4.0486
     4.1222   4.4030   4.4310   4.4618   4.5281   4.5513   4.6132   4.6771
     4.6889   4.7694   4.9136   4.9286   5.0097   5.2596   5.3485   5.5299
     5.7326   5.9052   5.9637   6.1270   6.1891   6.4677   6.5483   6.6036

          k = 0.0000 0.5663 0.0000 ( 64021 PWs)   bands (ev):

   -84.3193 -50.6675 -50.3610 -50.3116 -12.3453 -12.2266 -12.0668 -11.9828
   -11.9110 -11.8944 -11.8443 -11.8417 -11.8097 -11.7396 -11.7068 -11.6217
   -11.5901 -11.5575 -11.4197 -11.1838  -6.0558  -6.0236  -5.9585  -5.9313
    -5.9229  -5.9075  -5.8983  -5.8838  -5.8714  -5.8556  -5.8547  -5.8522
    -5.8496  -5.8441  -5.8410  -5.8371  -5.8350  -5.8302  -5.8240  -5.8139
    -5.8124  -5.7979  -5.7959  -5.7824  -5.7820  -5.7670  -5.7590  -5.7578
    -5.7500  -5.7411  -5.7309  -5.7211  -5.7175  -5.7027  -5.6853  -5.6594
    -5.6158  -5.5906  -5.5822  -5.5794  -5.5638  -5.5574  -5.5448  -5.5268
    -5.5254  -5.5160  -5.5134  -5.5062  -5.4961  -5.4823  -5.4689  -5.4647
    -5.4637  -5.4553  -5.4529  -5.4475  -5.4474  -5.4430  -5.4377  -5.4350
    -5.4344  -5.4310  -5.4193  -5.4165  -5.4011  -5.3863  -5.3813  -5.3733
    -5.3718  -5.3196  -5.3060  -5.3036  -5.2928  -5.2412  -5.2409  -5.1988
    -5.1821  -5.1691  -5.1250  -5.1189  -4.7877  -4.7139  -4.6567  -4.5722
    -4.5056  -4.4732  -4.2697  -4.2276  -4.2097  -4.0176  -3.9074  -3.8022
    -3.3522  -3.1153  -2.6381  -2.4526  -2.4125  -2.3262  -2.2684  -2.0939
    -2.0868  -2.0137  -1.7632  -1.7509  -1.6292  -1.6013  -1.4264  -1.3076
    -1.2908  -1.2173  -1.1297  -1.0350  -1.0286  -0.9746  -0.9382  -0.8660
    -0.8563  -0.7600  -0.6908  -0.6655  -0.6304  -0.5495  -0.5464  -0.5002
    -0.4660  -0.4566  -0.4327  -0.3346  -0.2171   1.3345   1.8308   1.8917
     2.1382   2.4362   3.3296   3.7075   3.7158   3.8152   3.9132   4.0230
     4.1951   4.2697   4.3095   4.4351   4.5176   4.6908   4.8281   4.9762
     5.0973   5.1120   5.2298   5.4732   5.6086   5.7482   5.8683   6.0313
     6.0669   6.0874   6.3459   6.4116   6.4763   6.6034   6.7626   6.8530

          k = 0.2000 0.0000 0.0000 ( 64112 PWs)   bands (ev):

   -84.3193 -50.6675 -50.3610 -50.3116 -12.6529 -12.4824 -12.2282 -12.0616
   -11.9504 -11.9175 -11.7859 -11.7005 -11.6620 -11.6194 -11.5847 -11.5799
   -11.5472 -11.4451 -11.3894 -11.2158  -6.1705  -6.0225  -6.0199  -5.9880
    -5.9656  -5.9626  -5.9542  -5.9462  -5.9451  -5.9140  -5.9073  -5.8987
    -5.8874  -5.8818  -5.8745  -5.8602  -5.8414  -5.8365  -5.8333  -5.8204
    -5.8110  -5.7953  -5.7837  -5.7762  -5.7685  -5.7531  -5.7452  -5.7318
    -5.7239  -5.7181  -5.7056  -5.6924  -5.6829  -5.6679  -5.6502  -5.6395
    -5.6360  -5.6279  -5.6222  -5.6172  -5.6051  -5.5926  -5.5824  -5.5774
    -5.5572  -5.5430  -5.5300  -5.5201  -5.5083  -5.4944  -5.4915  -5.4868
    -5.4820  -5.4750  -5.4733  -5.4682  -5.4608  -5.4482  -5.4448  -5.4431
    -5.4324  -5.4242  -5.4229  -5.4176  -5.4147  -5.4033  -5.3968  -5.3896
    -5.3853  -5.3794  -5.3289  -5.2964  -5.2677  -5.2391  -5.2215  -5.2145
    -5.1977  -5.1756  -5.1610  -5.1369  -4.2743  -4.2075  -4.1545  -4.1199
    -4.0758  -4.0440  -3.9071  -3.7926  -3.5610  -3.4683  -3.2182  -3.1442
    -2.9908  -2.7904  -2.6420  -2.6116  -2.4913  -2.3685  -2.2964  -2.2657
    -2.1419  -2.0644  -1.9904  -1.9560  -1.9345  -1.8963  -1.8702  -1.7395
    -1.6525  -1.6311  -1.5769  -1.5661  -1.4948  -1.3968  -1.3403  -1.2905
    -1.1953  -1.1100  -0.9673  -0.8312  -0.7623  -0.6407  -0.5618  -0.4398
    -0.3920  -0.1748  -0.1267  -0.0247   0.0673   1.4219   1.6587   1.6960
     1.8114   2.1069   2.9910   3.3681   3.5718   3.6913   4.0618   4.1328
     4.2908   4.4352   4.5333   4.5823   4.7061   4.7288   4.7910   4.8922
     4.9160   4.9870   5.0065   5.0960   5.1958   5.2526   5.3507   5.5340
     5.6403   5.7262   5.8091   5.9258   5.9730   6.0885   6.1240   6.2026

          k = 0.2000 0.2831 0.0000 ( 64083 PWs)   bands (ev):

   -84.3193 -50.6675 -50.3610 -50.3116 -12.5600 -12.4017 -12.1707 -12.0202
   -11.9208 -11.8950 -11.7701 -11.7236 -11.6892 -11.6654 -11.6593 -11.6206
   -11.5985 -11.4503 -11.4453 -11.2184  -6.1210  -6.0143  -5.9819  -5.9733
    -5.9564  -5.9375  -5.9241  -5.9176  -5.9125  -5.8990  -5.8946  -5.8837
    -5.8804  -5.8725  -5.8630  -5.8508  -5.8388  -5.8304  -5.8227  -5.8192
    -5.8079  -5.7914  -5.7873  -5.7822  -5.7703  -5.7527  -5.7429  -5.7384
    -5.7319  -5.7230  -5.7158  -5.7046  -5.7014  -5.6791  -5.6739  -5.6629
    -5.6528  -5.6327  -5.6195  -5.6112  -5.6035  -5.5861  -5.5818  -5.5701
    -5.5567  -5.5403  -5.5299  -5.5127  -5.5076  -5.4988  -5.4930  -5.4864
    -5.4813  -5.4722  -5.4615  -5.4597  -5.4528  -5.4460  -5.4415  -5.4398
    -5.4294  -5.4234  -5.4191  -5.4157  -5.4110  -5.4053  -5.3968  -5.3848
    -5.3837  -5.3619  -5.3153  -5.2976  -5.2707  -5.2317  -5.2220  -5.2178
    -5.2091  -5.1888  -5.1600  -5.1455  -4.4512  -4.3688  -4.3441  -4.2386
    -4.1956  -4.1056  -3.9131  -3.8637  -3.7328  -3.6257  -3.5371  -3.4759
    -3.4453  -2.9121  -2.6222  -2.5096  -2.3756  -2.2873  -2.2231  -2.1617
    -2.0870  -2.0087  -1.9349  -1.8404  -1.7843  -1.7501  -1.7351  -1.6371
    -1.5661  -1.5261  -1.4917  -1.4301  -1.3463  -1.3058  -1.2366  -1.1869
    -1.1082  -0.9678  -0.8974  -0.8198  -0.7891  -0.6758  -0.5766  -0.5041
    -0.4501  -0.3775  -0.3042  -0.0256   0.0954   1.3732   1.7280   1.7864
     1.9249   2.2695   3.2608   3.5706   3.8625   3.8916   4.0408   4.1712
     4.3143   4.3624   4.4567   4.5663   4.6843   4.7632   4.8278   4.9178
     4.9452   5.0029   5.0418   5.1072   5.2067   5.3025   5.4613   5.6755
     5.7606   5.8708   6.1411   6.1981   6.2371   6.3438   6.4481   6.4737

          k = 0.2000 0.5663 0.0000 ( 64014 PWs)   bands (ev):

   -84.3193 -50.6675 -50.3610 -50.3116 -12.3076 -12.1913 -12.0355 -11.9589
   -11.9194 -11.8840 -11.8675 -11.8484 -11.8041 -11.7595 -11.7368 -11.6487
   -11.6194 -11.5248 -11.4583 -11.2228  -6.0336  -6.0041  -5.9430  -5.9349
    -5.9128  -5.9058  -5.8943  -5.8820  -5.8683  -5.8546  -5.8499  -5.8478
    -5.8466  -5.8430  -5.8383  -5.8342  -5.8326  -5.8269  -5.8202  -5.8133
    -5.8066  -5.8000  -5.7945  -5.7875  -5.7796  -5.7731  -5.7640  -5.7614
    -5.7526  -5.7465  -5.7361  -5.7208  -5.7182  -5.7127  -5.6813  -5.6598
    -5.6225  -5.6108  -5.6028  -5.5927  -5.5768  -5.5626  -5.5525  -5.5498
    -5.5419  -5.5323  -5.5155  -5.5089  -5.5014  -5.4914  -5.4842  -5.4795
    -5.4744  -5.4676  -5.4607  -5.4547  -5.4514  -5.4491  -5.4446  -5.4395
    -5.4335  -5.4314  -5.4297  -5.4233  -5.4187  -5.4033  -5.3968  -5.3855
    -5.3786  -5.3644  -5.3448  -5.3083  -5.2923  -5.2762  -5.2665  -5.2193
    -5.2063  -5.1954  -5.1446  -5.1390  -4.6892  -4.6004  -4.5585  -4.4410
    -4.2894  -4.2058  -4.1646  -4.0822  -4.0355  -3.9268  -3.7513  -3.7400
    -3.3418  -3.1786  -2.7523  -2.6440  -2.5688  -2.4142  -2.2895  -2.1814
    -2.0501  -1.8936  -1.8010  -1.7306  -1.6602  -1.5443  -1.5276  -1.4602
    -1.3075  -1.2688  -1.2185  -1.1901  -1.0503  -1.0123  -0.9524  -0.9246
    -0.9060  -0.8885  -0.8275  -0.8044  -0.7826  -0.7144  -0.6893  -0.5793
    -0.5363  -0.4446  -0.4186  -0.2916  -0.1617   1.3570   1.8126   1.9047
     1.9831   2.4754   3.6881   3.7990   4.0082   4.1230   4.1595   4.2703
     4.3407   4.4111   4.4999   4.5408   4.6752   4.8935   4.9647   5.0453
     5.0946   5.2384   5.3578   5.5553   5.6494   5.7657   5.8523   6.1355
     6.1882   6.2776   6.4257   6.5152   6.5214   6.6347   6.7336   6.7989

          k = 0.4000 0.0000 0.0000 ( 64150 PWs)   bands (ev):

   -84.3193 -50.6675 -50.3610 -50.3116 -12.5119 -12.3534 -12.2988 -12.1597
   -12.1047 -11.9453 -11.8290 -11.7117 -11.6347 -11.5774 -11.5689 -11.5506
   -11.5458 -11.4761 -11.3406 -11.2746  -6.1319  -6.0327  -6.0310  -5.9851
    -5.9716  -5.9660  -5.9557  -5.9415  -5.9385  -5.9209  -5.9023  -5.8976
    -5.8757  -5.8740  -5.8594  -5.8507  -5.8436  -5.8322  -5.8205  -5.8126
    -5.7941  -5.7876  -5.7822  -5.7685  -5.7662  -5.7657  -5.7555  -5.7385
    -5.7308  -5.7254  -5.7149  -5.7040  -5.6890  -5.6874  -5.6768  -5.6602
    -5.6488  -5.6383  -5.6324  -5.6250  -5.6198  -5.6020  -5.5817  -5.5641
    -5.5428  -5.5327  -5.5221  -5.5144  -5.5101  -5.5057  -5.4996  -5.4909
    -5.4871  -5.4849  -5.4723  -5.4707  -5.4637  -5.4590  -5.4511  -5.4447
    -5.4378  -5.4324  -5.4319  -5.4231  -5.4185  -5.4103  -5.4060  -5.4039
    -5.3985  -5.3898  -5.3466  -5.2806  -5.2380  -5.2261  -5.1792  -5.1423
    -5.1145  -5.1109  -5.1004  -5.0848  -4.3061  -4.2201  -4.1992  -4.1448
    -4.0982  -3.9751  -3.8509  -3.6085  -3.4293  -3.2131  -3.0274  -2.7856
    -2.7581  -2.6427  -2.5791  -2.5078  -2.4891  -2.4262  -2.3579  -2.2774
    -2.2498  -2.2109  -2.1615  -2.1462  -2.0454  -1.9734  -1.9401  -1.8366
    -1.7766  -1.7412  -1.6822  -1.6038  -1.5242  -1.4570  -1.3588  -1.3161
    -1.1906  -1.1576  -1.0739  -0.9418  -0.8847  -0.8613  -0.7537  -0.5916
    -0.5585  -0.5432  -0.2778  -0.2414  -0.0915   1.4668   1.5670   1.6050
     1.8800   2.2570   3.4423   3.7644   3.9672   4.0330   4.1405   4.2907
     4.3828   4.5721   4.6357   4.7040   4.7351   4.8561   4.9081   4.9685
     5.1080   5.1984   5.2679   5.3139   5.3924   5.5139   5.6056   5.6866
     5.7184   5.7901   5.8417   5.9356   5.9551   6.1349   6.1738   6.2981

          k = 0.4000 0.2831 0.0000 ( 64088 PWs)   bands (ev):

   -84.3193 -50.6675 -50.3610 -50.3116 -12.4283 -12.2815 -12.2318 -12.1035
   -12.0548 -11.9091 -11.8137 -11.7087 -11.6616 -11.6437 -11.6376 -11.6222
   -11.6024 -11.5030 -11.3792 -11.2928  -6.0848  -6.0087  -6.0015  -5.9493
    -5.9445  -5.9370  -5.9304  -5.9213  -5.9125  -5.8971  -5.8895  -5.8835
    -5.8713  -5.8633  -5.8547  -5.8498  -5.8409  -5.8300  -5.8210  -5.8100
    -5.7944  -5.7903  -5.7869  -5.7734  -5.7673  -5.7600  -5.7584  -5.7490
    -5.7407  -5.7312  -5.7242  -5.7213  -5.7124  -5.7040  -5.6934  -5.6773
    -5.6591  -5.6484  -5.6408  -5.6240  -5.6098  -5.6041  -5.5821  -5.5630
    -5.5490  -5.5350  -5.5271  -5.5190  -5.5138  -5.5099  -5.4955  -5.4897
    -5.4760  -5.4728  -5.4684  -5.4650  -5.4554  -5.4525  -5.4455  -5.4417
    -5.4387  -5.4307  -5.4294  -5.4268  -5.4183  -5.4120  -5.4044  -5.3984
    -5.3890  -5.3636  -5.3227  -5.2691  -5.2519  -5.2225  -5.2173  -5.1885
    -5.1818  -5.1775  -5.1435  -5.1295  -4.3453  -4.2771  -4.2517  -4.1817
    -4.1518  -4.0168  -3.9855  -3.8039  -3.5710  -3.4155  -3.2191  -3.0284
    -2.9113  -2.8435  -2.7395  -2.5697  -2.5314  -2.4736  -2.3731  -2.2990
    -2.2603  -2.1371  -2.0801  -1.9909  -1.8945  -1.8384  -1.7583  -1.6805
    -1.6214  -1.5673  -1.5193  -1.4732  -1.4436  -1.4047  -1.3497  -1.2223
    -1.1714  -1.1313  -1.0887  -0.9972  -0.9151  -0.7722  -0.7208  -0.5936
    -0.5322  -0.4720  -0.2952  -0.1763  -0.0719   1.4106   1.6195   1.7051
     2.0146   2.3066   3.5756   3.8594   4.0117   4.1616   4.1912   4.3511
     4.3950   4.5639   4.6958   4.7257   4.8018   4.8859   5.0249   5.0671
     5.1435   5.3178   5.3597   5.5615   5.6851   5.7333   5.8120   5.8738
     5.9308   6.0154   6.1156   6.1650   6.2176   6.3188   6.3757   6.4439

          k = 0.4000 0.5663 0.0000 ( 64042 PWs)   bands (ev):

   -84.3193 -50.6675 -50.3610 -50.3116 -12.2038 -12.0982 -12.0571 -11.9707
   -11.9403 -11.8917 -11.8386 -11.8160 -11.8065 -11.7922 -11.7392 -11.7125
   -11.6928 -11.5429 -11.4364 -11.3213  -5.9885  -5.9660  -5.9413  -5.9225
    -5.9194  -5.8989  -5.8741  -5.8664  -5.8619  -5.8502  -5.8482  -5.8415
    -5.8389  -5.8346  -5.8325  -5.8287  -5.8252  -5.8211  -5.8129  -5.8084
    -5.8045  -5.7990  -5.7941  -5.7893  -5.7801  -5.7755  -5.7678  -5.7625
    -5.7573  -5.7490  -5.7453  -5.7399  -5.7333  -5.7263  -5.6985  -5.6910
    -5.6671  -5.6497  -5.6298  -5.6192  -5.5945  -5.5798  -5.5751  -5.5679
    -5.5572  -5.5475  -5.5349  -5.5264  -5.5196  -5.5084  -5.5050  -5.4935
    -5.4793  -5.4731  -5.4673  -5.4648  -5.4559  -5.4510  -5.4507  -5.4461
    -5.4412  -5.4367  -5.4300  -5.4229  -5.4192  -5.4099  -5.4038  -5.3986
    -5.3812  -5.3700  -5.3622  -5.3474  -5.3274  -5.3078  -5.2776  -5.2586
    -5.2336  -5.2135  -5.2012  -5.1864  -4.4930  -4.4225  -4.2438  -4.2030
    -4.0826  -4.0728  -3.9574  -3.8384  -3.6816  -3.5396  -3.5008  -3.4665
    -3.3156  -3.2929  -2.9473  -2.8509  -2.6965  -2.4878  -2.4116  -2.2548
    -2.2015  -2.1217  -2.0385  -1.8907  -1.8039  -1.7636  -1.7018  -1.6100
    -1.5455  -1.4751  -1.2661  -1.2434  -1.2156  -1.1552  -1.1070  -1.0250
    -0.9561  -0.9097  -0.8823  -0.8553  -0.8167  -0.7500  -0.6960  -0.6575
    -0.5365  -0.4450  -0.3253  -0.3152  -0.2039   1.3990   1.6928   1.8226
     2.0535   2.5240   3.9363   4.1319   4.3176   4.4287   4.4589   4.5799
     4.6437   4.7656   4.7958   4.8392   4.8782   4.9430   5.0623   5.1505
     5.2356   5.4281   5.4981   5.6312   5.7205   6.1599   6.3181   6.3896
     6.4190   6.4422   6.5758   6.6098   6.6137   6.6692   6.7287   6.7911

          k =-0.2000 0.2831 0.0000 ( 64083 PWs)   bands (ev):

   -84.3193 -50.6675 -50.3610 -50.3116 -12.5600 -12.4017 -12.1707 -12.0203
   -11.9211 -11.8947 -11.7702 -11.7233 -11.6893 -11.6654 -11.6593 -11.6205
   -11.5985 -11.4504 -11.4453 -11.2184  -6.1212  -6.0143  -5.9819  -5.9733
    -5.9563  -5.9379  -5.9238  -5.9173  -5.9125  -5.8992  -5.8947  -5.8834
    -5.8804  -5.8729  -5.8631  -5.8510  -5.8388  -5.8305  -5.8227  -5.8189
    -5.8077  -5.7910  -5.7875  -5.7820  -5.7706  -5.7528  -5.7432  -5.7387
    -5.7316  -5.7228  -5.7158  -5.7048  -5.7005  -5.6791  -5.6738  -5.6628
    -5.6522  -5.6323  -5.6198  -5.6118  -5.6039  -5.5861  -5.5814  -5.5702
    -5.5567  -5.5398  -5.5299  -5.5127  -5.5077  -5.4988  -5.4935  -5.4858
    -5.4810  -5.4726  -5.4613  -5.4592  -5.4531  -5.4457  -5.4415  -5.4398
    -5.4294  -5.4239  -5.4191  -5.4165  -5.4113  -5.4058  -5.3963  -5.3848
    -5.3836  -5.3620  -5.3150  -5.2977  -5.2707  -5.2314  -5.2228  -5.2176
    -5.2086  -5.1888  -5.1597  -5.1453  -4.4510  -4.3682  -4.3452  -4.2392
    -4.1957  -4.1068  -3.9142  -3.8640  -3.7323  -3.6231  -3.5368  -3.4758
    -3.4446  -2.9120  -2.6229  -2.5089  -2.3767  -2.2865  -2.2249  -2.1612
    -2.0877  -2.0084  -1.9334  -1.8395  -1.7866  -1.7490  -1.7345  -1.6369
    -1.5659  -1.5267  -1.4925  -1.4295  -1.3478  -1.3059  -1.2345  -1.1872
    -1.1086  -0.9676  -0.8979  -0.8197  -0.7887  -0.6767  -0.5768  -0.5045
    -0.4507  -0.3765  -0.3042  -0.0257   0.0954   1.3731   1.7260   1.7910
     1.9262   2.2664   3.2605   3.5702   3.8624   3.8909   4.0417   4.1724
     4.3144   4.3612   4.4568   4.5656   4.6866   4.7628   4.8279   4.9182
     4.9449   5.0029   5.0419   5.1071   5.2066   5.3031   5.4611   5.6732
     5.7617   5.8704   6.1410   6.1966   6.2372   6.3445   6.4471   6.4721

          k =-0.2000 0.5663 0.0000 ( 64014 PWs)   bands (ev):

   -84.3193 -50.6675 -50.3610 -50.3116 -12.3076 -12.1913 -12.0355 -11.9589
   -11.9197 -11.8840 -11.8675 -11.8487 -11.8035 -11.7598 -11.7366 -11.6487
   -11.6194 -11.5248 -11.4584 -11.2228  -6.0338  -6.0041  -5.9429  -5.9348
    -5.9128  -5.9058  -5.8938  -5.8821  -5.8687  -5.8548  -5.8500  -5.8477
    -5.8465  -5.8432  -5.8384  -5.8342  -5.8325  -5.8269  -5.8201  -5.8134
    -5.8065  -5.8001  -5.7946  -5.7875  -5.7797  -5.7732  -5.7643  -5.7614
    -5.7522  -5.7465  -5.7359  -5.7209  -5.7182  -5.7122  -5.6806  -5.6591
    -5.6236  -5.6107  -5.6027  -5.5924  -5.5764  -5.5622  -5.5528  -5.5499
    -5.5426  -5.5324  -5.5154  -5.5091  -5.5008  -5.4927  -5.4840  -5.4794
    -5.4743  -5.4672  -5.4599  -5.4546  -5.4514  -5.4492  -5.4447  -5.4399
    -5.4339  -5.4313  -5.4292  -5.4237  -5.4194  -5.4034  -5.3963  -5.3854
    -5.3783  -5.3644  -5.3451  -5.3081  -5.2923  -5.2762  -5.2665  -5.2193
    -5.2061  -5.1953  -5.1447  -5.1389  -4.6892  -4.6002  -4.5586  -4.4424
    -4.2894  -4.2058  -4.1645  -4.0824  -4.0357  -3.9266  -3.7507  -3.7393
    -3.3416  -3.1782  -2.7519  -2.6442  -2.5690  -2.4158  -2.2899  -2.1821
    -2.0483  -1.8966  -1.7981  -1.7311  -1.6588  -1.5449  -1.5285  -1.4599
    -1.3066  -1.2670  -1.2176  -1.1914  -1.0512  -1.0117  -0.9522  -0.9245
    -0.9047  -0.8902  -0.8275  -0.8074  -0.7831  -0.7136  -0.6884  -0.5795
    -0.5359  -0.4447  -0.4187  -0.2917  -0.1616   1.3568   1.8121   1.9074
     1.9830   2.4746   3.6850   3.7985   4.0061   4.1235   4.1599   4.2711
     4.3402   4.4116   4.5001   4.5427   4.6759   4.8930   4.9661   5.0461
     5.0960   5.2380   5.3586   5.5555   5.6487   5.7639   5.8525   6.1359
     6.1871   6.2781   6.4254   6.5165   6.5216   6.6355   6.7350   6.7966

          k =-0.4000 0.2831 0.0000 ( 64088 PWs)   bands (ev):

   -84.3193 -50.6675 -50.3610 -50.3116 -12.4283 -12.2814 -12.2318 -12.1036
   -12.0548 -11.9092 -11.8136 -11.7087 -11.6615 -11.6438 -11.6376 -11.6221
   -11.6024 -11.5032 -11.3792 -11.2928  -6.0850  -6.0087  -6.0015  -5.9493
    -5.9447  -5.9369  -5.9305  -5.9210  -5.9124  -5.8970  -5.8893  -5.8838
    -5.8714  -5.8632  -5.8547  -5.8501  -5.8410  -5.8300  -5.8209  -5.8099
    -5.7944  -5.7903  -5.7868  -5.7733  -5.7674  -5.7604  -5.7583  -5.7484
    -5.7407  -5.7313  -5.7243  -5.7212  -5.7122  -5.7039  -5.6934  -5.6774
    -5.6589  -5.6477  -5.6410  -5.6243  -5.6104  -5.6040  -5.5819  -5.5629
    -5.5490  -5.5354  -5.5269  -5.5190  -5.5143  -5.5092  -5.4959  -5.4895
    -5.4761  -5.4726  -5.4680  -5.4647  -5.4558  -5.4523  -5.4455  -5.4422
    -5.4387  -5.4305  -5.4297  -5.4268  -5.4184  -5.4120  -5.4046  -5.3984
    -5.3892  -5.3632  -5.3228  -5.2688  -5.2521  -5.2219  -5.2180  -5.1879
    -5.1817  -5.1779  -5.1435  -5.1295  -4.3459  -4.2777  -4.2507  -4.1819
    -4.1522  -4.0164  -3.9867  -3.8042  -3.5710  -3.4145  -3.2172  -3.0298
    -2.9101  -2.8439  -2.7395  -2.5687  -2.5332  -2.4729  -2.3737  -2.2993
    -2.2604  -2.1378  -2.0792  -1.9899  -1.8947  -1.8390  -1.7583  -1.6798
    -1.6209  -1.5672  -1.5212  -1.4736  -1.4429  -1.4050  -1.3489  -1.2227
    -1.1725  -1.1311  -1.0885  -0.9964  -0.9139  -0.7741  -0.7221  -0.5919
    -0.5317  -0.4726  -0.2954  -0.1763  -0.0718   1.4107   1.6197   1.7054
     2.0150   2.3061   3.5747   3.8592   4.0115   4.1614   4.1935   4.3489
     4.3947   4.5637   4.6985   4.7264   4.8024   4.8849   5.0213   5.0677
     5.1461   5.3206   5.3601   5.5570   5.6850   5.7301   5.8139   5.8732
     5.9319   6.0168   6.1158   6.1639   6.2190   6.3169   6.3756   6.4436

          k =-0.4000 0.5663 0.0000 ( 64042 PWs)   bands (ev):

   -84.3193 -50.6675 -50.3610 -50.3116 -12.2037 -12.0981 -12.0572 -11.9709
   -11.9402 -11.8918 -11.8385 -11.8159 -11.8068 -11.7919 -11.7386 -11.7130
   -11.6925 -11.5430 -11.4364 -11.3213  -5.9889  -5.9660  -5.9413  -5.9224
    -5.9184  -5.8996  -5.8741  -5.8666  -5.8619  -5.8506  -5.8480  -5.8415
    -5.8391  -5.8345  -5.8327  -5.8287  -5.8251  -5.8210  -5.8130  -5.8084
    -5.8045  -5.7989  -5.7940  -5.7896  -5.7799  -5.7755  -5.7682  -5.7625
    -5.7574  -5.7488  -5.7454  -5.7398  -5.7331  -5.7252  -5.6982  -5.6916
    -5.6663  -5.6498  -5.6303  -5.6196  -5.5947  -5.5796  -5.5751  -5.5673
    -5.5575  -5.5480  -5.5351  -5.5262  -5.5199  -5.5083  -5.5048  -5.4930
    -5.4792  -5.4730  -5.4673  -5.4649  -5.4561  -5.4514  -5.4506  -5.4458
    -5.4413  -5.4367  -5.4301  -5.4227  -5.4194  -5.4097  -5.4037  -5.3989
    -5.3812  -5.3701  -5.3616  -5.3475  -5.3283  -5.3075  -5.2769  -5.2592
    -5.2338  -5.2127  -5.2012  -5.1868  -4.4929  -4.4230  -4.2434  -4.2028
    -4.0828  -4.0730  -3.9578  -3.8403  -3.6814  -3.5398  -3.4997  -3.4632
    -3.3161  -3.2936  -2.9478  -2.8507  -2.6965  -2.4868  -2.4154  -2.2543
    -2.1963  -2.1259  -2.0387  -1.8906  -1.8039  -1.7633  -1.7021  -1.6095
    -1.5449  -1.4737  -1.2660  -1.2444  -1.2157  -1.1545  -1.1082  -1.0249
    -0.9559  -0.9109  -0.8830  -0.8537  -0.8158  -0.7529  -0.6965  -0.6552
    -0.5364  -0.4451  -0.3254  -0.3154  -0.2037   1.3988   1.6933   1.8229
     2.0535   2.5238   3.9368   4.1293   4.3157   4.4271   4.4615   4.5771
     4.6467   4.7654   4.7950   4.8409   4.8783   4.9424   5.0627   5.1544
     5.2355   5.4270   5.5013   5.6309   5.7207   6.1602   6.3180   6.3854
     6.4183   6.4420   6.5811   6.6087   6.6158   6.6657   6.7284   6.7884

     the Fermi energy is     1.9720 ev

!    total energy              =   -5292.19150453 Ry
     Harris-Foulkes estimate   =   -5292.19150535 Ry
     estimated scf accuracy    <       0.00000077 Ry

     total all-electron energy =    -72796.458327 Ry

     The total energy is the sum of the following terms:

     one-electron contribution =  -17335.20032642 Ry
     hartree contribution      =    8905.51506348 Ry
     xc contribution           =    -865.61153135 Ry
     ewald contribution        =    6350.74897648 Ry
     one-center paw contrib.   =   -2347.64444549 Ry
     smearing contrib. (-TS)   =       0.00075876 Ry

     convergence has been achieved in  33 iterations

     negative rho (up, down):  4.114E-03 0.000E+00

     Forces acting on atoms (cartesian axes, Ry/au):

     atom    1 type  1   force =     0.00005407    0.00044487    0.00024053
     atom    2 type  1   force =    -0.00005921    0.00043909    0.00024121
     atom    3 type  1   force =     0.00000157    0.00019067    0.00057541
     atom    4 type  1   force =    -0.00000421    0.00043159    0.00035199
     atom    5 type  2   force =    -0.00005168   -0.00098387   -0.00064573
     atom    6 type  2   force =    -0.00000332    0.00073083   -0.00036104
     atom    7 type  2   force =     0.00004830   -0.00098423   -0.00065565
     atom    8 type  2   force =    -0.00000152    0.00075289   -0.00024530
     atom    9 type  1   force =    -0.00027685    0.00049244   -0.00027387
     atom   10 type  1   force =     0.00027337    0.00051693   -0.00028598
     atom   11 type  1   force =    -0.00000521    0.00073476    0.00020240
     atom   12 type  1   force =     0.00000653   -0.00092222   -0.00075922
     atom   13 type  2   force =    -0.00036913   -0.00086891    0.00047876
     atom   14 type  2   force =    -0.00000107    0.00016199    0.00063360
     atom   15 type  2   force =     0.00037004   -0.00089507    0.00057413
     atom   16 type  2   force =    -0.00000386    0.00019800   -0.00024451
     atom   17 type  1   force =    -0.00170356   -0.00043795   -0.00069159
     atom   18 type  1   force =     0.00172492   -0.00042154   -0.00076502
     atom   19 type  1   force =     0.00006169    0.00061838   -0.00219263
     atom   20 type  1   force =    -0.00008000    0.00106121   -0.00175829
     atom   21 type  2   force =     0.00064245   -0.00024577    0.00031061
     atom   22 type  2   force =    -0.00000858    0.00037930    0.00228140
     atom   23 type  2   force =    -0.00059759   -0.00012942    0.00061804
     atom   24 type  2   force =     0.00012263   -0.00190326    0.00519251
     atom   25 type  1   force =     0.00103403   -0.00036225   -0.00129763
     atom   26 type  1   force =    -0.00078751   -0.00047110   -0.00097951
     atom   27 type  1   force =     0.00004648   -0.00172320   -0.00104021
     atom   28 type  1   force =    -0.00010200   -0.00121033   -0.00070920
     atom   29 type  2   force =     0.00061028    0.00127396    0.00164460
     atom   30 type  2   force =    -0.00016502   -0.00038912   -0.00102296
     atom   31 type  2   force =    -0.00039537    0.00124797    0.00140138
     atom   32 type  2   force =    -0.00024593    0.00157035   -0.00133854
     atom   33 type  3   force =    -0.00009054    0.00096204    0.00187808
     atom   34 type  4   force =    -0.00004421   -0.00025903   -0.00135778

     Total force =     0.006462     Total SCF correction =     0.002170
     SCF correction compared to forces is large: reduce conv_thr to get better values

     BFGS Geometry Optimization

     number of scf cycles    =   1
     number of bfgs steps    =   0

     energy   new            =   -5292.1915045341 Ry

     new trust radius        =       0.0022789960 bohr
     new conv_thr            =       0.0000010000 Ry


ATOMIC_POSITIONS (angstrom)
Zn       0.000000000   0.292989050   8.332766170    0   0   0
Zn       3.820347600   0.292988540   8.332764800    0   0   0
Zn       1.910173120   2.619373990   9.729554040    0   0   0
Zn       5.730522080   2.619373990   9.729554040    0   0   0
S        7.640695200   3.987710500   9.867023530    0   0   0
S        1.910173620   1.372083360   7.758043420    0   0   0
S        3.820347600   3.987711610   9.867023300    0   0   0
S        5.730521580   1.372083360   7.758043420    0   0   0
Zn       3.820347600  -0.052488200  11.806209530    0   0   0
Zn       0.000000000  -0.052487450  11.806206720    0   0   0
Zn       5.730521290   2.648261110  13.666913340    0   0   0
Zn       1.910173910   2.648261110  13.666913340    0   0   0
S        3.820347600   4.009049400  13.722667710    0   0   0
S        5.730520580   1.314949970  11.736335200    0   0   0
S        0.000000000   4.009051280  13.722666550    0   0   0
S        1.910174620   1.314949970  11.736335200    0   0   0
Zn       0.000000000  -0.050408920  15.666137970    0   0   0
Zn       3.820347600  -0.050408660  15.666139170    0   0   0
Zn       1.910271349   2.722402528  17.494729390
Zn       5.732597781   2.557016513  17.599862205
S       -0.039717404   3.998618268  17.604770866
S        1.910173860   1.310390190  15.610382310    0   0   0
S        3.862620170   3.996599915  17.601966450
S        5.730521340   1.310390190  15.610382310    0   0   0
Zn       3.834977649  -0.104329348  19.578809760
Zn      -0.006065594  -0.102198874  19.581693311
Zn       5.733999324   3.158414444  21.069363534
Zn       1.908615964   2.431073592  21.450224510
S        3.672651363   3.990191756  21.689301190
S        5.734589012   1.292901056  19.615514555
S        0.149842617   3.990592452  21.700612098
S        1.917315559   1.276469134  19.346681980
Fe       1.910486103  -0.082354459  21.295166884
H        1.894584745   0.987881653  22.446666547



     Writing output data file ZnS_110.save/
     NEW-OLD atomic charge density approx. for the potential

     Check: negative core charge=   -0.000004

     negative rho (up, down):  4.118E-03 0.000E+00

     total cpu time spent up to now is     9065.1 secs

     Self-consistent Calculation

     iteration #  1     ecut=    60.00 Ry     beta= 0.20
     Davidson diagonalization with overlap
     ethr =  1.00E-06,  avg # of iterations =  3.2

     Threshold (ethr) on eigenvalues was too large:
     Diagonalizing with lowered threshold

     Davidson diagonalization with overlap
     ethr =  5.10E-09,  avg # of iterations =  3.3

     negative rho (up, down):  4.121E-03 0.000E+00

     total cpu time spent up to now is     9816.1 secs

     total energy              =   -5292.19154375 Ry
     Harris-Foulkes estimate   =   -5292.19152957 Ry
     estimated scf accuracy    <       0.00001621 Ry

     iteration #  2     ecut=    60.00 Ry     beta= 0.20
     Davidson diagonalization with overlap
     ethr =  5.32E-09,  avg # of iterations =  1.0

     negative rho (up, down):  4.131E-03 0.000E+00

     total cpu time spent up to now is    10145.2 secs

     total energy              =   -5292.19154415 Ry
     Harris-Foulkes estimate   =   -5292.19154390 Ry
     estimated scf accuracy    <       0.00001251 Ry

     iteration #  3     ecut=    60.00 Ry     beta= 0.20
     Davidson diagonalization with overlap
     ethr =  4.10E-09,  avg # of iterations =  2.0

     negative rho (up, down):  4.148E-03 0.000E+00

     total cpu time spent up to now is    10485.4 secs

     total energy              =   -5292.19154411 Ry
     Harris-Foulkes estimate   =   -5292.19154461 Ry
     estimated scf accuracy    <       0.00000695 Ry

     iteration #  4     ecut=    60.00 Ry     beta= 0.20
     Davidson diagonalization with overlap
     ethr =  2.28E-09,  avg # of iterations =  2.0

     negative rho (up, down):  4.158E-03 0.000E+00

     total cpu time spent up to now is    10839.6 secs

     total energy              =   -5292.19154416 Ry
     Harris-Foulkes estimate   =   -5292.19154484 Ry
     estimated scf accuracy    <       0.00000267 Ry

     iteration #  5     ecut=    60.00 Ry     beta= 0.20
     Davidson diagonalization with overlap
     ethr =  8.77E-10,  avg # of iterations =  2.1

     negative rho (up, down):  4.160E-03 0.000E+00

     total cpu time spent up to now is    11153.1 secs

     total energy              =   -5292.19154405 Ry
     Harris-Foulkes estimate   =   -5292.19154432 Ry
     estimated scf accuracy    <       0.00000201 Ry

     iteration #  6     ecut=    60.00 Ry     beta= 0.20
     Davidson diagonalization with overlap
     ethr =  6.59E-10,  avg # of iterations =  2.0

     negative rho (up, down):  4.115E-03 0.000E+00

     total cpu time spent up to now is    11430.0 secs

     End of self-consistent calculation

          k = 0.0000 0.0000 0.0000 ( 64099 PWs)   bands (ev):

   -84.3129 -50.6616 -50.3548 -50.3047 -12.7020 -12.5279 -12.2676 -11.9571
   -11.8694 -11.8403 -11.7569 -11.7306 -11.7185 -11.6316 -11.6046 -11.5895
   -11.5495 -11.4194 -11.4098 -11.1944  -6.1881  -6.0308  -6.0131  -5.9943
    -5.9658  -5.9554  -5.9453  -5.9417  -5.9344  -5.9228  -5.9057  -5.8996
    -5.8983  -5.8904  -5.8701  -5.8516  -5.8468  -5.8450  -5.8402  -5.8235
    -5.8088  -5.8003  -5.7715  -5.7682  -5.7627  -5.7565  -5.7416  -5.7238
    -5.7109  -5.7101  -5.6865  -5.6562  -5.6534  -5.6431  -5.6382  -5.6341
    -5.6330  -5.6219  -5.6157  -5.6132  -5.6085  -5.6009  -5.5936  -5.5884
    -5.5794  -5.5520  -5.5465  -5.5446  -5.5128  -5.4972  -5.4890  -5.4833
    -5.4829  -5.4685  -5.4679  -5.4640  -5.4508  -5.4473  -5.4431  -5.4364
    -5.4221  -5.4146  -5.4129  -5.4088  -5.3955  -5.3935  -5.3879  -5.3802
    -5.3782  -5.3676  -5.3480  -5.3259  -5.3185  -5.2764  -5.2520  -5.2506
    -5.2268  -5.1984  -5.1800  -5.1546  -4.2726  -4.2167  -4.1522  -4.0932
    -4.0304  -3.8699  -3.8368  -3.7254  -3.6559  -3.6323  -3.6060  -3.5582
    -3.1695  -2.8209  -2.6896  -2.4790  -2.2945  -2.2667  -2.2511  -2.1428
    -2.0788  -2.0392  -2.0277  -1.9206  -1.9163  -1.8882  -1.8134  -1.7931
    -1.7334  -1.6048  -1.6005  -1.5527  -1.4814  -1.3113  -1.2715  -1.2195
    -1.1284  -1.0781  -0.9018  -0.7387  -0.7099  -0.5716  -0.5012  -0.4600
    -0.1207  -0.0197   0.1388   0.1604   0.3091   1.4112   1.7162   1.7378
     1.8904   1.9102   2.6656   3.1635   3.4333   3.5044   3.8356   3.9517
     4.2279   4.3295   4.3787   4.4161   4.4555   4.5052   4.6827   4.7859
     4.8106   4.8556   4.9127   5.1028   5.1622   5.1828   5.2496   5.4057
     5.4119   5.5342   5.6577   5.9763   6.1279   6.3303   6.3631   6.4144

          k = 0.0000 0.2831 0.0000 ( 64113 PWs)   bands (ev):

   -84.3129 -50.6616 -50.3548 -50.3047 -12.6062 -12.4445 -12.2078 -11.9355
   -11.8606 -11.8321 -11.7504 -11.7483 -11.7194 -11.6739 -11.6701 -11.6278
   -11.5962 -11.4723 -11.4166 -11.1913  -6.1374  -6.0298  -5.9757  -5.9725
    -5.9610  -5.9353  -5.9168  -5.9156  -5.9114  -5.9072  -5.9011  -5.8873
    -5.8842  -5.8688  -5.8669  -5.8480  -5.8474  -5.8399  -5.8320  -5.8220
    -5.8111  -5.7828  -5.7817  -5.7685  -5.7670  -5.7545  -5.7449  -5.7222
    -5.7191  -5.7146  -5.6990  -5.6752  -5.6674  -5.6580  -5.6553  -5.6382
    -5.6219  -5.6200  -5.6163  -5.6101  -5.6053  -5.5790  -5.5779  -5.5775
    -5.5687  -5.5549  -5.5354  -5.5304  -5.5110  -5.4964  -5.4947  -5.4924
    -5.4776  -5.4712  -5.4592  -5.4560  -5.4556  -5.4389  -5.4315  -5.4289
    -5.4206  -5.4123  -5.4119  -5.4102  -5.3981  -5.3961  -5.3792  -5.3779
    -5.3672  -5.3451  -5.3401  -5.3217  -5.3056  -5.2661  -5.2559  -5.2292
    -5.2221  -5.2022  -5.1967  -5.1932  -4.4188  -4.3108  -4.2002  -4.1607
    -4.1135  -4.0953  -4.0671  -4.0492  -3.9607  -3.8533  -3.7943  -3.7755
    -3.5018  -2.8990  -2.4308  -2.2916  -2.2355  -2.1801  -2.1401  -2.1338
    -2.0646  -2.0442  -1.9495  -1.8601  -1.8179  -1.7909  -1.6914  -1.6435
    -1.5737  -1.4916  -1.4827  -1.3881  -1.3522  -1.2582  -1.2021  -1.1593
    -1.0434  -0.9231  -0.8883  -0.7138  -0.6536  -0.5415  -0.5269  -0.4835
    -0.2073  -0.1269  -0.0139   0.0164   0.0795   1.3576   1.7749   1.8319
     1.9995   2.2030   3.0266   3.3197   3.6519   3.7718   3.8708   4.0489
     4.1227   4.4031   4.4319   4.4623   4.5285   4.5507   4.6137   4.6775
     4.6889   4.7703   4.9161   4.9288   5.0095   5.2598   5.3483   5.5309
     5.7328   5.9053   5.9641   6.1271   6.1893   6.4691   6.5504   6.6039

          k = 0.0000 0.5663 0.0000 ( 64021 PWs)   bands (ev):

   -84.3129 -50.6616 -50.3548 -50.3047 -12.3448 -12.2254 -12.0655 -11.9818
   -11.9100 -11.8940 -11.8463 -11.8368 -11.8058 -11.7393 -11.7056 -11.6215
   -11.5905 -11.5600 -11.4121 -11.1862  -6.0501  -6.0260  -5.9547  -5.9336
    -5.9212  -5.9050  -5.9007  -5.8804  -5.8673  -5.8549  -5.8521  -5.8511
    -5.8503  -5.8450  -5.8408  -5.8383  -5.8368  -5.8288  -5.8238  -5.8156
    -5.8110  -5.7966  -5.7945  -5.7801  -5.7794  -5.7655  -5.7593  -5.7584
    -5.7504  -5.7437  -5.7306  -5.7184  -5.7155  -5.7008  -5.6831  -5.6580
    -5.6139  -5.5903  -5.5802  -5.5774  -5.5638  -5.5554  -5.5440  -5.5261
    -5.5246  -5.5182  -5.5106  -5.5047  -5.4956  -5.4797  -5.4675  -5.4639
    -5.4621  -5.4542  -5.4512  -5.4470  -5.4465  -5.4409  -5.4404  -5.4358
    -5.4345  -5.4297  -5.4185  -5.4165  -5.3961  -5.3863  -5.3833  -5.3751
    -5.3718  -5.3177  -5.3045  -5.3026  -5.2918  -5.2405  -5.2387  -5.1945
    -5.1813  -5.1658  -5.1240  -5.1178  -4.7850  -4.7153  -4.6542  -4.5723
    -4.5035  -4.4726  -4.2656  -4.2265  -4.2097  -4.0161  -3.9097  -3.8001
    -3.3510  -3.1141  -2.6378  -2.4502  -2.4108  -2.3246  -2.2673  -2.0913
    -2.0864  -2.0137  -1.7606  -1.7489  -1.6268  -1.5995  -1.4239  -1.3067
    -1.2892  -1.2170  -1.1290  -1.0341  -1.0276  -0.9734  -0.9377  -0.8650
    -0.8549  -0.7587  -0.6922  -0.6650  -0.6277  -0.5483  -0.5438  -0.4997
    -0.4666  -0.4587  -0.4328  -0.3371  -0.2197   1.3392   1.8367   1.8980
     2.1446   2.4425   3.3348   3.7092   3.7144   3.8137   3.9139   4.0237
     4.1955   4.2705   4.3089   4.4366   4.5172   4.6920   4.8289   4.9753
     5.0977   5.1105   5.2304   5.4739   5.6097   5.7499   5.8682   6.0320
     6.0664   6.0888   6.3462   6.4123   6.4767   6.6048   6.7629   6.8543

          k = 0.2000 0.0000 0.0000 ( 64112 PWs)   bands (ev):

   -84.3129 -50.6616 -50.3548 -50.3047 -12.6524 -12.4812 -12.2265 -12.0614
   -11.9492 -11.9160 -11.7850 -11.6983 -11.6612 -11.6188 -11.5853 -11.5778
   -11.5456 -11.4376 -11.3920 -11.2183  -6.1639  -6.0251  -6.0223  -5.9905
    -5.9646  -5.9609  -5.9526  -5.9444  -5.9428  -5.9113  -5.9057  -5.8978
    -5.8866  -5.8812  -5.8733  -5.8593  -5.8430  -5.8368  -5.8329  -5.8199
    -5.8105  -5.7947  -5.7823  -5.7740  -5.7659  -5.7512  -5.7455  -5.7300
    -5.7235  -5.7189  -5.7047  -5.6915  -5.6806  -5.6670  -5.6505  -5.6401
    -5.6338  -5.6285  -5.6229  -5.6142  -5.6051  -5.5892  -5.5810  -5.5760
    -5.5588  -5.5426  -5.5307  -5.5187  -5.5052  -5.4931  -5.4887  -5.4872
    -5.4799  -5.4736  -5.4716  -5.4696  -5.4583  -5.4466  -5.4446  -5.4426
    -5.4317  -5.4237  -5.4214  -5.4163  -5.4139  -5.4021  -5.3970  -5.3907
    -5.3874  -5.3791  -5.3282  -5.2952  -5.2663  -5.2371  -5.2181  -5.2131
    -5.1962  -5.1730  -5.1597  -5.1356  -4.2693  -4.2056  -4.1534  -4.1184
    -4.0752  -4.0456  -3.9057  -3.7926  -3.5595  -3.4666  -3.2175  -3.1446
    -2.9913  -2.7889  -2.6397  -2.6080  -2.4922  -2.3668  -2.2948  -2.2652
    -2.1385  -2.0621  -1.9908  -1.9543  -1.9342  -1.8950  -1.8691  -1.7382
    -1.6516  -1.6305  -1.5756  -1.5653  -1.4947  -1.3947  -1.3389  -1.2886
    -1.1949  -1.1114  -0.9658  -0.8305  -0.7613  -0.6381  -0.5608  -0.4410
    -0.3902  -0.1733  -0.1282  -0.0249   0.0657   1.4266   1.6646   1.7015
     1.8183   2.1125   2.9919   3.3696   3.5701   3.6926   4.0640   4.1320
     4.2912   4.4362   4.5325   4.5828   4.7064   4.7299   4.7925   4.8910
     4.9166   4.9872   5.0067   5.0966   5.1976   5.2530   5.3513   5.5342
     5.6410   5.7260   5.8095   5.9269   5.9739   6.0885   6.1245   6.2026

          k = 0.2000 0.2831 0.0000 ( 64083 PWs)   bands (ev):

   -84.3129 -50.6616 -50.3548 -50.3047 -12.5595 -12.4006 -12.1691 -12.0201
   -11.9194 -11.8938 -11.7691 -11.7215 -11.6885 -11.6632 -11.6583 -11.6190
   -11.5997 -11.4478 -11.4427 -11.2209  -6.1145  -6.0169  -5.9844  -5.9758
    -5.9527  -5.9352  -5.9223  -5.9168  -5.9118  -5.8974  -5.8929  -5.8829
    -5.8789  -5.8718  -5.8618  -5.8513  -5.8387  -5.8302  -5.8230  -5.8178
    -5.8081  -5.7906  -5.7851  -5.7821  -5.7677  -5.7512  -5.7427  -5.7372
    -5.7316  -5.7235  -5.7147  -5.7039  -5.6994  -5.6794  -5.6730  -5.6631
    -5.6502  -5.6319  -5.6195  -5.6099  -5.6013  -5.5869  -5.5784  -5.5685
    -5.5584  -5.5394  -5.5288  -5.5119  -5.5061  -5.4997  -5.4902  -5.4835
    -5.4806  -5.4698  -5.4610  -5.4576  -5.4524  -5.4444  -5.4413  -5.4398
    -5.4282  -5.4223  -5.4191  -5.4143  -5.4114  -5.4043  -5.3948  -5.3873
    -5.3861  -5.3606  -5.3147  -5.2958  -5.2693  -5.2293  -5.2192  -5.2167
    -5.2062  -5.1872  -5.1592  -5.1434  -4.4489  -4.3675  -4.3426  -4.2376
    -4.1945  -4.1037  -3.9125  -3.8637  -3.7307  -3.6225  -3.5373  -3.4782
    -3.4441  -2.9117  -2.6188  -2.5082  -2.3750  -2.2853  -2.2211  -2.1608
    -2.0864  -2.0060  -1.9328  -1.8396  -1.7834  -1.7493  -1.7340  -1.6357
    -1.5656  -1.5249  -1.4913  -1.4291  -1.3454  -1.3043  -1.2355  -1.1856
    -1.1080  -0.9671  -0.8973  -0.8192  -0.7887  -0.6737  -0.5751  -0.5035
    -0.4514  -0.3764  -0.3050  -0.0258   0.0941   1.3779   1.7340   1.7921
     1.9313   2.2756   3.2641   3.5697   3.8608   3.8928   4.0426   4.1717
     4.3135   4.3621   4.4563   4.5676   4.6848   4.7631   4.8282   4.9191
     4.9461   5.0029   5.0418   5.1079   5.2077   5.3032   5.4616   5.6761
     5.7605   5.8713   6.1412   6.1980   6.2377   6.3453   6.4487   6.4738

          k = 0.2000 0.5663 0.0000 ( 64014 PWs)   bands (ev):

   -84.3129 -50.6616 -50.3548 -50.3047 -12.3071 -12.1901 -12.0340 -11.9578
   -11.9197 -11.8833 -11.8671 -11.8475 -11.7987 -11.7587 -11.7357 -11.6483
   -11.6199 -11.5272 -11.4507 -11.2253  -6.0279  -6.0065  -5.9418  -5.9341
    -5.9152  -5.9030  -5.8921  -5.8788  -5.8648  -5.8533  -5.8499  -5.8491
    -5.8470  -5.8425  -5.8374  -5.8341  -5.8323  -5.8269  -5.8195  -5.8130
    -5.8069  -5.7994  -5.7932  -5.7864  -5.7779  -5.7718  -5.7649  -5.7621
    -5.7514  -5.7471  -5.7337  -5.7202  -5.7177  -5.7104  -5.6792  -5.6572
    -5.6199  -5.6119  -5.6020  -5.5916  -5.5754  -5.5588  -5.5534  -5.5507
    -5.5413  -5.5315  -5.5138  -5.5073  -5.4999  -5.4887  -5.4825  -5.4801
    -5.4741  -5.4664  -5.4583  -5.4534  -5.4514  -5.4492  -5.4443  -5.4382
    -5.4337  -5.4319  -5.4274  -5.4230  -5.4169  -5.4044  -5.3974  -5.3854
    -5.3789  -5.3651  -5.3426  -5.3077  -5.2907  -5.2736  -5.2652  -5.2165
    -5.2033  -5.1930  -5.1427  -5.1381  -4.6872  -4.5986  -4.5586  -4.4400
    -4.2886  -4.2032  -4.1636  -4.0793  -4.0373  -3.9248  -3.7510  -3.7397
    -3.3406  -3.1774  -2.7498  -2.6424  -2.5686  -2.4128  -2.2888  -2.1822
    -2.0465  -1.8902  -1.7983  -1.7283  -1.6591  -1.5434  -1.5264  -1.4596
    -1.3062  -1.2679  -1.2178  -1.1891  -1.0492  -1.0105  -0.9510  -0.9245
    -0.9061  -0.8871  -0.8263  -0.8034  -0.7819  -0.7152  -0.6882  -0.5791
    -0.5356  -0.4445  -0.4203  -0.2921  -0.1639   1.3616   1.8183   1.9108
     1.9894   2.4819   3.6907   3.8007   4.0103   4.1218   4.1596   4.2705
     4.3416   4.4102   4.4997   4.5423   4.6752   4.8931   4.9651   5.0453
     5.0941   5.2391   5.3587   5.5556   5.6497   5.7666   5.8534   6.1367
     6.1888   6.2777   6.4261   6.5169   6.5228   6.6353   6.7338   6.7991

          k = 0.4000 0.0000 0.0000 ( 64150 PWs)   bands (ev):

   -84.3129 -50.6616 -50.3548 -50.3048 -12.5114 -12.3519 -12.2987 -12.1584
   -12.1037 -11.9442 -11.8272 -11.7103 -11.6328 -11.5758 -11.5691 -11.5496
   -11.5444 -11.4690 -11.3431 -11.2771  -6.1259  -6.0352  -6.0336  -5.9840
    -5.9718  -5.9642  -5.9552  -5.9419  -5.9356  -5.9204  -5.8999  -5.8959
    -5.8758  -5.8726  -5.8586  -5.8480  -5.8435  -5.8328  -5.8199  -5.8129
    -5.7934  -5.7884  -5.7796  -5.7674  -5.7661  -5.7613  -5.7517  -5.7371
    -5.7306  -5.7260  -5.7151  -5.7031  -5.6898  -5.6878  -5.6755  -5.6601
    -5.6499  -5.6375  -5.6317  -5.6252  -5.6199  -5.5982  -5.5788  -5.5616
    -5.5426  -5.5318  -5.5206  -5.5146  -5.5087  -5.5050  -5.4966  -5.4890
    -5.4859  -5.4822  -5.4719  -5.4706  -5.4638  -5.4582  -5.4489  -5.4433
    -5.4371  -5.4318  -5.4303  -5.4221  -5.4191  -5.4109  -5.4075  -5.4042
    -5.4006  -5.3880  -5.3449  -5.2794  -5.2361  -5.2200  -5.1772  -5.1409
    -5.1135  -5.1085  -5.1019  -5.0839  -4.3023  -4.2201  -4.1991  -4.1439
    -4.0965  -3.9734  -3.8498  -3.6071  -3.4284  -3.2124  -3.0267  -2.7822
    -2.7578  -2.6417  -2.5773  -2.5074  -2.4863  -2.4264  -2.3565  -2.2766
    -2.2488  -2.2107  -2.1596  -2.1450  -2.0441  -1.9724  -1.9390  -1.8353
    -1.7749  -1.7393  -1.6813  -1.6026  -1.5233  -1.4562  -1.3581  -1.3153
    -1.1889  -1.1570  -1.0737  -0.9411  -0.8848  -0.8614  -0.7526  -0.5911
    -0.5562  -0.5428  -0.2783  -0.2421  -0.0925   1.4715   1.5724   1.6110
     1.8869   2.2626   3.4451   3.7644   3.9648   4.0344   4.1423   4.2898
     4.3812   4.5726   4.6364   4.7037   4.7367   4.8558   4.9089   4.9691
     5.1077   5.1987   5.2681   5.3151   5.3928   5.5143   5.6059   5.6884
     5.7193   5.7908   5.8403   5.9360   5.9563   6.1360   6.1737   6.2983

          k = 0.4000 0.2831 0.0000 ( 64088 PWs)   bands (ev):

   -84.3129 -50.6616 -50.3548 -50.3048 -12.4278 -12.2800 -12.2317 -12.1022
   -12.0540 -11.9080 -11.8120 -11.7072 -11.6600 -11.6423 -11.6380 -11.6187
   -11.6032 -11.4957 -11.3817 -11.2953  -6.0787  -6.0112  -6.0040  -5.9491
    -5.9426  -5.9359  -5.9289  -5.9209  -5.9117  -5.8951  -5.8898  -5.8811
    -5.8706  -5.8626  -5.8541  -5.8474  -5.8405  -5.8301  -5.8206  -5.8104
    -5.7942  -5.7883  -5.7869  -5.7723  -5.7643  -5.7581  -5.7558  -5.7478
    -5.7401  -5.7310  -5.7238  -5.7213  -5.7112  -5.7049  -5.6931  -5.6781
    -5.6585  -5.6468  -5.6407  -5.6233  -5.6088  -5.6028  -5.5792  -5.5603
    -5.5501  -5.5338  -5.5265  -5.5186  -5.5134  -5.5076  -5.4930  -5.4867
    -5.4734  -5.4710  -5.4685  -5.4645  -5.4547  -5.4513  -5.4434  -5.4403
    -5.4386  -5.4308  -5.4286  -5.4254  -5.4192  -5.4137  -5.4063  -5.4008
    -5.3867  -5.3620  -5.3215  -5.2683  -5.2502  -5.2192  -5.2133  -5.1862
    -5.1811  -5.1767  -5.1411  -5.1300  -4.3425  -4.2780  -4.2486  -4.1805
    -4.1510  -4.0163  -3.9844  -3.8028  -3.5711  -3.4130  -3.2178  -3.0279
    -2.9106  -2.8393  -2.7394  -2.5679  -2.5306  -2.4726  -2.3716  -2.2974
    -2.2610  -2.1358  -2.0798  -1.9881  -1.8950  -1.8363  -1.7564  -1.6789
    -1.6199  -1.5657  -1.5177  -1.4735  -1.4422  -1.4043  -1.3486  -1.2222
    -1.1697  -1.1306  -1.0885  -0.9975  -0.9143  -0.7708  -0.7194  -0.5925
    -0.5311  -0.4720  -0.2967  -0.1762  -0.0735   1.4153   1.6252   1.7109
     2.0209   2.3128   3.5780   3.8595   4.0112   4.1621   4.1915   4.3511
     4.3940   4.5641   4.6973   4.7251   4.8024   4.8864   5.0250   5.0669
     5.1445   5.3185   5.3601   5.5634   5.6845   5.7351   5.8130   5.8741
     5.9310   6.0156   6.1156   6.1654   6.2178   6.3190   6.3757   6.4450

          k = 0.4000 0.5663 0.0000 ( 64042 PWs)   bands (ev):

   -84.3129 -50.6616 -50.3548 -50.3048 -12.2032 -12.0965 -12.0572 -11.9692
   -11.9398 -11.8910 -11.8375 -11.8152 -11.8058 -11.7926 -11.7352 -11.7104
   -11.6925 -11.5352 -11.4388 -11.3237  -5.9827  -5.9685  -5.9437  -5.9244
    -5.9151  -5.8937  -5.8761  -5.8638  -5.8594  -5.8483  -5.8477  -5.8424
    -5.8383  -5.8348  -5.8314  -5.8277  -5.8239  -5.8205  -5.8121  -5.8078
    -5.8048  -5.7999  -5.7938  -5.7889  -5.7808  -5.7745  -5.7670  -5.7610
    -5.7547  -5.7488  -5.7436  -5.7387  -5.7337  -5.7253  -5.6982  -5.6884
    -5.6666  -5.6476  -5.6294  -5.6199  -5.5934  -5.5780  -5.5735  -5.5650
    -5.5576  -5.5463  -5.5345  -5.5260  -5.5185  -5.5087  -5.5020  -5.4890
    -5.4796  -5.4724  -5.4675  -5.4627  -5.4542  -5.4504  -5.4491  -5.4460
    -5.4405  -5.4366  -5.4298  -5.4230  -5.4192  -5.4104  -5.4038  -5.3991
    -5.3799  -5.3703  -5.3616  -5.3467  -5.3263  -5.3064  -5.2759  -5.2578
    -5.2310  -5.2098  -5.1986  -5.1835  -4.4904  -4.4206  -4.2433  -4.2019
    -4.0814  -4.0737  -3.9573  -3.8365  -3.6808  -3.5383  -3.4993  -3.4639
    -3.3165  -3.2920  -2.9442  -2.8462  -2.6985  -2.4867  -2.4100  -2.2538
    -2.1995  -2.1203  -2.0372  -1.8899  -1.8025  -1.7623  -1.7008  -1.6094
    -1.5459  -1.4722  -1.2642  -1.2419  -1.2145  -1.1546  -1.1066  -1.0236
    -0.9541  -0.9083  -0.8809  -0.8552  -0.8166  -0.7485  -0.6963  -0.6568
    -0.5358  -0.4453  -0.3260  -0.3170  -0.2058   1.4034   1.6986   1.8284
     2.0595   2.5309   3.9368   4.1340   4.3181   4.4285   4.4606   4.5809
     4.6449   4.7654   4.7959   4.8385   4.8777   4.9432   5.0616   5.1500
     5.2361   5.4309   5.5006   5.6295   5.7188   6.1616   6.3187   6.3907
     6.4198   6.4424   6.5768   6.6101   6.6136   6.6704   6.7303   6.7924

          k =-0.2000 0.2831 0.0000 ( 64083 PWs)   bands (ev):

   -84.3129 -50.6616 -50.3548 -50.3047 -12.5595 -12.4006 -12.1691 -12.0201
   -11.9197 -11.8935 -11.7692 -11.7212 -11.6886 -11.6632 -11.6583 -11.6189
   -11.5997 -11.4478 -11.4429 -11.2209  -6.1147  -6.0169  -5.9844  -5.9758
    -5.9526  -5.9355  -5.9220  -5.9165  -5.9117  -5.8975  -5.8931  -5.8825
    -5.8790  -5.8722  -5.8619  -5.8515  -5.8387  -5.8304  -5.8230  -5.8176
    -5.8080  -5.7903  -5.7854  -5.7818  -5.7680  -5.7511  -5.7429  -5.7377
    -5.7313  -5.7234  -5.7147  -5.7042  -5.6985  -5.6794  -5.6729  -5.6629
    -5.6497  -5.6314  -5.6197  -5.6104  -5.6018  -5.5870  -5.5780  -5.5686
    -5.5584  -5.5390  -5.5288  -5.5118  -5.5063  -5.4995  -5.4908  -5.4832
    -5.4801  -5.4702  -5.4610  -5.4570  -5.4526  -5.4441  -5.4413  -5.4397
    -5.4281  -5.4226  -5.4190  -5.4152  -5.4116  -5.4051  -5.3944  -5.3873
    -5.3861  -5.3608  -5.3144  -5.2959  -5.2693  -5.2291  -5.2197  -5.2166
    -5.2057  -5.1873  -5.1591  -5.1432  -4.4486  -4.3670  -4.3436  -4.2382
    -4.1946  -4.1049  -3.9136  -3.8640  -3.7304  -3.6199  -3.5369  -3.4781
    -3.4433  -2.9115  -2.6196  -2.5075  -2.3761  -2.2845  -2.2229  -2.1604
    -2.0869  -2.0057  -1.9313  -1.8387  -1.7856  -1.7482  -1.7334  -1.6354
    -1.5654  -1.5255  -1.4920  -1.4285  -1.3468  -1.3046  -1.2335  -1.1860
    -1.1083  -0.9669  -0.8978  -0.8191  -0.7883  -0.6745  -0.5753  -0.5040
    -0.4521  -0.3755  -0.3050  -0.0259   0.0941   1.3778   1.7319   1.7967
     1.9327   2.2726   3.2638   3.5694   3.8607   3.8921   4.0435   4.1729
     4.3136   4.3610   4.4564   4.5669   4.6871   4.7627   4.8283   4.9195
     4.9460   5.0029   5.0419   5.1078   5.2075   5.3038   5.4614   5.6738
     5.7616   5.8709   6.1411   6.1965   6.2378   6.3460   6.4479   6.4721

          k =-0.2000 0.5663 0.0000 ( 64014 PWs)   bands (ev):

   -84.3129 -50.6616 -50.3548 -50.3047 -12.3071 -12.1901 -12.0341 -11.9578
   -11.9199 -11.8833 -11.8671 -11.8478 -11.7981 -11.7589 -11.7354 -11.6483
   -11.6199 -11.5272 -11.4507 -11.2253  -6.0282  -6.0065  -5.9418  -5.9340
    -5.9152  -5.9029  -5.8917  -5.8790  -5.8652  -5.8533  -5.8499  -5.8492
    -5.8468  -5.8426  -5.8376  -5.8343  -5.8321  -5.8270  -5.8194  -5.8131
    -5.8068  -5.7996  -5.7932  -5.7863  -5.7781  -5.7718  -5.7651  -5.7623
    -5.7511  -5.7472  -5.7335  -5.7201  -5.7179  -5.7100  -5.6785  -5.6564
    -5.6210  -5.6119  -5.6018  -5.5913  -5.5749  -5.5585  -5.5535  -5.5507
    -5.5423  -5.5315  -5.5138  -5.5076  -5.4992  -5.4898  -5.4826  -5.4798
    -5.4741  -5.4662  -5.4576  -5.4532  -5.4512  -5.4492  -5.4446  -5.4386
    -5.4342  -5.4318  -5.4272  -5.4230  -5.4180  -5.4045  -5.3970  -5.3853
    -5.3786  -5.3651  -5.3429  -5.3075  -5.2907  -5.2737  -5.2652  -5.2166
    -5.2030  -5.1929  -5.1428  -5.1379  -4.6870  -4.5985  -4.5587  -4.4413
    -4.2886  -4.2032  -4.1635  -4.0795  -4.0375  -3.9246  -3.7508  -3.7388
    -3.3403  -3.1770  -2.7493  -2.6426  -2.5688  -2.4143  -2.2893  -2.1829
    -2.0448  -1.8930  -1.7954  -1.7288  -1.6576  -1.5440  -1.5275  -1.4593
    -1.3054  -1.2662  -1.2169  -1.1904  -1.0501  -1.0098  -0.9508  -0.9243
    -0.9049  -0.8888  -0.8262  -0.8064  -0.7825  -0.7146  -0.6871  -0.5792
    -0.5352  -0.4447  -0.4204  -0.2923  -0.1638   1.3614   1.8178   1.9135
     1.9894   2.4812   3.6877   3.8000   4.0082   4.1223   4.1601   4.2713
     4.3412   4.4107   4.5000   4.5442   4.6759   4.8925   4.9665   5.0461
     5.0955   5.2387   5.3596   5.5558   5.6491   5.7648   5.8536   6.1371
     6.1877   6.2782   6.4257   6.5179   6.5232   6.6361   6.7353   6.7967

          k =-0.4000 0.2831 0.0000 ( 64088 PWs)   bands (ev):

   -84.3129 -50.6616 -50.3548 -50.3048 -12.4277 -12.2800 -12.2317 -12.1023
   -12.0539 -11.9081 -11.8119 -11.7073 -11.6599 -11.6423 -11.6380 -11.6186
   -11.6032 -11.4958 -11.3817 -11.2953  -6.0789  -6.0112  -6.0040  -5.9490
    -5.9429  -5.9356  -5.9290  -5.9206  -5.9116  -5.8950  -5.8897  -5.8814
    -5.8708  -5.8625  -5.8541  -5.8476  -5.8406  -5.8302  -5.8206  -5.8103
    -5.7942  -5.7881  -5.7870  -5.7722  -5.7644  -5.7579  -5.7565  -5.7473
    -5.7401  -5.7311  -5.7238  -5.7213  -5.7109  -5.7048  -5.6931  -5.6782
    -5.6584  -5.6459  -5.6408  -5.6236  -5.6092  -5.6029  -5.5790  -5.5602
    -5.5500  -5.5341  -5.5264  -5.5186  -5.5137  -5.5071  -5.4935  -5.4865
    -5.4734  -5.4709  -5.4683  -5.4639  -5.4549  -5.4511  -5.4436  -5.4407
    -5.4387  -5.4305  -5.4288  -5.4254  -5.4194  -5.4137  -5.4064  -5.4008
    -5.3871  -5.3616  -5.3216  -5.2680  -5.2504  -5.2186  -5.2141  -5.1854
    -5.1810  -5.1771  -5.1411  -5.1299  -4.3430  -4.2786  -4.2477  -4.1808
    -4.1513  -4.0158  -3.9855  -3.8031  -3.5711  -3.4120  -3.2159  -3.0293
    -2.9094  -2.8398  -2.7395  -2.5669  -2.5323  -2.4719  -2.3722  -2.2977
    -2.2611  -2.1365  -2.0790  -1.9871  -1.8952  -1.8368  -1.7563  -1.6782
    -1.6193  -1.5656  -1.5195  -1.4740  -1.4415  -1.4045  -1.3478  -1.2226
    -1.1707  -1.1305  -1.0882  -0.9967  -0.9131  -0.7726  -0.7208  -0.5908
    -0.5305  -0.4726  -0.2969  -0.1762  -0.0734   1.4154   1.6255   1.7113
     2.0213   2.3123   3.5771   3.8593   4.0111   4.1617   4.1940   4.3490
     4.3936   4.5638   4.6999   4.7259   4.8030   4.8855   5.0215   5.0675
     5.1470   5.3213   5.3604   5.5591   5.6844   5.7320   5.8149   5.8735
     5.9322   6.0170   6.1158   6.1643   6.2192   6.3170   6.3756   6.4445

          k =-0.4000 0.5663 0.0000 ( 64042 PWs)   bands (ev):

   -84.3129 -50.6616 -50.3548 -50.3048 -12.2032 -12.0965 -12.0572 -11.9694
   -11.9397 -11.8911 -11.8375 -11.8151 -11.8061 -11.7923 -11.7347 -11.7110
   -11.6922 -11.5353 -11.4388 -11.3237  -5.9831  -5.9685  -5.9437  -5.9244
    -5.9140  -5.8944  -5.8761  -5.8639  -5.8593  -5.8487  -5.8476  -5.8423
    -5.8386  -5.8347  -5.8316  -5.8277  -5.8240  -5.8204  -5.8123  -5.8078
    -5.8047  -5.7998  -5.7936  -5.7892  -5.7807  -5.7746  -5.7673  -5.7610
    -5.7550  -5.7487  -5.7437  -5.7385  -5.7337  -5.7239  -5.6979  -5.6890
    -5.6657  -5.6475  -5.6298  -5.6203  -5.5935  -5.5779  -5.5735  -5.5644
    -5.5577  -5.5470  -5.5348  -5.5259  -5.5189  -5.5085  -5.5019  -5.4884
    -5.4796  -5.4723  -5.4675  -5.4627  -5.4543  -5.4505  -5.4493  -5.4458
    -5.4406  -5.4366  -5.4300  -5.4228  -5.4195  -5.4102  -5.4036  -5.3995
    -5.3799  -5.3703  -5.3609  -5.3468  -5.3272  -5.3061  -5.2752  -5.2583
    -5.2312  -5.2091  -5.1984  -5.1840  -4.4902  -4.4211  -4.2430  -4.2017
    -4.0814  -4.0741  -3.9577  -3.8384  -3.6806  -3.5385  -3.4985  -3.4604
    -3.3169  -3.2928  -2.9447  -2.8461  -2.6985  -2.4858  -2.4137  -2.2533
    -2.1943  -2.1244  -2.0375  -1.8898  -1.8025  -1.7622  -1.7011  -1.6089
    -1.5454  -1.4708  -1.2641  -1.2430  -1.2144  -1.1539  -1.1078  -1.0236
    -0.9539  -0.9093  -0.8818  -0.8535  -0.8156  -0.7515  -0.6967  -0.6544
    -0.5357  -0.4455  -0.3261  -0.3172  -0.2056   1.4033   1.6991   1.8288
     2.0595   2.5307   3.9372   4.1314   4.3163   4.4268   4.4633   4.5781
     4.6476   4.7652   4.7950   4.8402   4.8778   4.9425   5.0620   5.1540
     5.2361   5.4299   5.5039   5.6293   5.7190   6.1619   6.3186   6.3866
     6.4189   6.4424   6.5820   6.6087   6.6160   6.6670   6.7300   6.7898

     the Fermi energy is     1.9783 ev

!    total energy              =   -5292.19154359 Ry
     Harris-Foulkes estimate   =   -5292.19154419 Ry
     estimated scf accuracy    <       0.00000088 Ry

     total all-electron energy =    -72796.458366 Ry

     The total energy is the sum of the following terms:

     one-electron contribution =  -17335.30074514 Ry
     hartree contribution      =    8905.53085868 Ry
     xc contribution           =    -865.61036775 Ry
     ewald contribution        =    6350.83247310 Ry
     one-center paw contrib.   =   -2347.64451544 Ry
     smearing contrib. (-TS)   =       0.00075296 Ry

     convergence has been achieved in   6 iterations

     negative rho (up, down):  4.115E-03 0.000E+00

     Forces acting on atoms (cartesian axes, Ry/au):

     atom    1 type  1   force =     0.00003061    0.00071167   -0.00023296
     atom    2 type  1   force =    -0.00003110    0.00070773   -0.00023154
[...]
    -5.1251  -5.1198  -5.1087  -5.0857  -4.3076  -4.2350  -4.2112  -4.1526
    -4.0944  -3.9730  -3.8503  -3.6056  -3.4318  -3.2172  -3.0326  -2.7824
    -2.7648  -2.6375  -2.5831  -2.5174  -2.4883  -2.4306  -2.3647  -2.2812
    -2.2534  -2.2223  -2.1677  -2.1495  -2.0517  -1.9743  -1.9452  -1.8348
    -1.7747  -1.7388  -1.6892  -1.6062  -1.5287  -1.4630  -1.3649  -1.3219
    -1.1911  -1.1640  -1.0850  -0.9521  -0.8933  -0.8698  -0.7558  -0.5966
    -0.5595  -0.5506  -0.2898  -0.2524  -0.1030   1.4832   1.5815   1.6151
     1.9023   2.2691   3.4329   3.7561   3.9528   4.0283   4.1314   4.2798
     4.3704   4.5625   4.6296   4.6886   4.7295   4.8382   4.9074   4.9658
     5.0995   5.1839   5.2583   5.3096   5.3838   5.5053   5.5988   5.6899
     5.7049   5.7765   5.8320   5.9239   5.9494   6.1375   6.1678   6.2951

          k = 0.4000 0.2831 0.0000 ( 64088 PWs)   bands (ev):

   -84.3023 -50.6464 -50.3405 -50.3007 -12.4427 -12.2818 -12.2475 -12.1042
   -12.0583 -11.9111 -11.8166 -11.7134 -11.6763 -11.6587 -11.6547 -11.6208
   -11.5936 -11.4629 -11.3919 -11.3054  -6.0584  -6.0220  -6.0148  -5.9627
    -5.9559  -5.9456  -5.9408  -5.9302  -5.9219  -5.9035  -5.8956  -5.8867
    -5.8819  -5.8743  -5.8672  -5.8568  -5.8484  -5.8395  -5.8257  -5.8223
    -5.8049  -5.7988  -5.7922  -5.7813  -5.7707  -5.7627  -5.7575  -5.7485
    -5.7409  -5.7335  -5.7318  -5.7262  -5.7180  -5.7101  -5.7006  -5.6875
    -5.6667  -5.6517  -5.6453  -5.6303  -5.6138  -5.6046  -5.5750  -5.5628
    -5.5575  -5.5407  -5.5325  -5.5257  -5.5208  -5.5071  -5.4976  -5.4909
    -5.4830  -5.4801  -5.4769  -5.4733  -5.4652  -5.4598  -5.4530  -5.4505
    -5.4466  -5.4412  -5.4394  -5.4340  -5.4260  -5.4242  -5.4166  -5.4123
    -5.3877  -5.3619  -5.3220  -5.2732  -5.2554  -5.2194  -5.1974  -5.1919
    -5.1863  -5.1791  -5.1454  -5.1320  -4.3539  -4.2886  -4.2454  -4.1914
    -4.1585  -4.0225  -3.9849  -3.8038  -3.5790  -3.4095  -3.2185  -3.0312
    -2.9159  -2.8238  -2.7527  -2.5757  -2.5373  -2.4780  -2.3810  -2.3025
    -2.2703  -2.1382  -2.0849  -1.9812  -1.9032  -1.8312  -1.7603  -1.6863
    -1.6291  -1.5709  -1.5275  -1.4827  -1.4452  -1.4133  -1.3538  -1.2316
    -1.1755  -1.1368  -1.0962  -1.0051  -0.9218  -0.7738  -0.7257  -0.5967
    -0.5368  -0.4828  -0.3069  -0.1879  -0.0855   1.4277   1.6368   1.7135
     2.0329   2.3247   3.5643   3.8473   4.0033   4.1555   4.1812   4.3400
     4.3832   4.5530   4.6888   4.7147   4.7935   4.8774   5.0152   5.0590
     5.1335   5.3135   5.3480   5.5573   5.6781   5.7285   5.8084   5.8622
     5.9158   6.0077   6.1093   6.1582   6.2070   6.3113   6.3719   6.4393

          k = 0.4000 0.5663 0.0000 ( 64042 PWs)   bands (ev):

   -84.3022 -50.6464 -50.3405 -50.3007 -12.2176 -12.0980 -12.0725 -11.9695
   -11.9462 -11.9078 -11.8408 -11.8306 -11.8178 -11.8059 -11.7354 -11.7161
   -11.6851 -11.4997 -11.4490 -11.3338  -5.9796  -5.9714  -5.9543  -5.9358
    -5.9120  -5.8886  -5.8834  -5.8775  -5.8710  -5.8637  -5.8594  -5.8562
    -5.8518  -5.8499  -5.8452  -5.8404  -5.8364  -5.8271  -5.8236  -5.8163
    -5.8122  -5.8059  -5.8008  -5.7953  -5.7917  -5.7841  -5.7756  -5.7648
    -5.7608  -5.7531  -5.7469  -5.7415  -5.7345  -5.7246  -5.7046  -5.6881
    -5.6691  -5.6487  -5.6371  -5.6269  -5.5986  -5.5856  -5.5752  -5.5650
    -5.5595  -5.5483  -5.5418  -5.5326  -5.5252  -5.5158  -5.5038  -5.4920
    -5.4860  -5.4830  -5.4763  -5.4708  -5.4650  -5.4621  -5.4599  -5.4564
    -5.4531  -5.4492  -5.4416  -5.4322  -5.4293  -5.4221  -5.4127  -5.4082
    -5.3850  -5.3788  -5.3671  -5.3470  -5.3302  -5.3068  -5.2763  -5.2593
    -5.2288  -5.2099  -5.1889  -5.1748  -4.4901  -4.4258  -4.2548  -4.2095
    -4.0966  -4.0762  -3.9641  -3.8370  -3.6862  -3.5463  -3.5100  -3.4600
    -3.3242  -3.2928  -2.9391  -2.8250  -2.7106  -2.4947  -2.4154  -2.2572
    -2.2013  -2.1244  -2.0425  -1.8946  -1.8071  -1.7622  -1.7047  -1.6203
    -1.5549  -1.4713  -1.2727  -1.2450  -1.2220  -1.1588  -1.1180  -1.0324
    -0.9599  -0.9162  -0.8884  -0.8652  -0.8272  -0.7519  -0.7058  -0.6610
    -0.5424  -0.4578  -0.3389  -0.3285  -0.2175   1.4162   1.7072   1.8349
     2.0696   2.5449   3.9269   4.1220   4.3116   4.4173   4.4500   4.5742
     4.6374   4.7537   4.7848   4.8275   4.8663   4.9351   5.0516   5.1410
     5.2256   5.4220   5.4965   5.6188   5.7065   6.1499   6.3007   6.3810
     6.4088   6.4339   6.5661   6.5989   6.6103   6.6670   6.7274   6.7893

          k =-0.2000 0.2831 0.0000 ( 64083 PWs)   bands (ev):

   -84.3023 -50.6464 -50.3405 -50.3007 -12.5746 -12.4032 -12.1689 -12.0355
   -11.9216 -11.8995 -11.7717 -11.7286 -11.7061 -11.6805 -11.6504 -11.6222
   -11.6144 -11.4581 -11.4095 -11.2310  -6.0895  -6.0282  -5.9955  -5.9867
    -5.9582  -5.9475  -5.9344  -5.9299  -5.9271  -5.9077  -5.8981  -5.8923
    -5.8872  -5.8777  -5.8669  -5.8600  -5.8506  -5.8413  -5.8341  -5.8247
    -5.8180  -5.7994  -5.7932  -5.7885  -5.7730  -5.7578  -5.7500  -5.7412
    -5.7343  -5.7313  -5.7222  -5.7119  -5.6990  -5.6887  -5.6789  -5.6685
    -5.6520  -5.6363  -5.6269  -5.6166  -5.6003  -5.5947  -5.5766  -5.5691
    -5.5636  -5.5451  -5.5350  -5.5173  -5.5133  -5.5047  -5.4954  -5.4909
    -5.4861  -5.4776  -5.4713  -5.4651  -5.4635  -5.4559  -5.4534  -5.4475
    -5.4398  -5.4354  -5.4312  -5.4245  -5.4168  -5.4094  -5.3989  -5.3967
    -5.3934  -5.3613  -5.3207  -5.2986  -5.2708  -5.2357  -5.2238  -5.2167
    -5.1973  -5.1849  -5.1663  -5.1384  -4.4585  -4.3700  -4.3440  -4.2496
    -4.2030  -4.1017  -3.9176  -3.8759  -3.7306  -3.6158  -3.5453  -3.4905
    -3.4507  -2.9165  -2.6133  -2.5146  -2.3828  -2.2836  -2.2223  -2.1682
    -2.0959  -2.0016  -1.9274  -1.8434  -1.7919  -1.7581  -1.7412  -1.6411
    -1.5731  -1.5325  -1.4981  -1.4356  -1.3529  -1.3089  -1.2382  -1.1899
    -1.1209  -0.9734  -0.9059  -0.8253  -0.7962  -0.6773  -0.5810  -0.5113
    -0.4620  -0.3831  -0.3155  -0.0368   0.0813   1.3916   1.7364   1.8076
     1.9447   2.2829   3.2578   3.5614   3.8502   3.8884   4.0354   4.1594
     4.3045   4.3499   4.4437   4.5606   4.6719   4.7531   4.8212   4.9126
     4.9336   4.9949   5.0339   5.1016   5.2012   5.2980   5.4552   5.6640
     5.7547   5.8744   6.1261   6.1920   6.2387   6.3431   6.4388   6.4614

          k =-0.2000 0.5663 0.0000 ( 64014 PWs)   bands (ev):

   -84.3022 -50.6464 -50.3405 -50.3007 -12.3218 -12.1929 -12.0345 -11.9739
   -11.9342 -11.8922 -11.8784 -11.8548 -11.7819 -11.7709 -11.7308 -11.6633
   -11.6344 -11.5374 -11.4168 -11.2353  -6.0207  -6.0150  -5.9511  -5.9362
    -5.9259  -5.9120  -5.8902  -5.8805  -5.8759  -5.8670  -5.8631  -5.8613
    -5.8597  -5.8552  -5.8494  -5.8453  -5.8400  -5.8386  -5.8294  -5.8199
    -5.8157  -5.8107  -5.8018  -5.7932  -5.7823  -5.7798  -5.7744  -5.7632
    -5.7587  -5.7526  -5.7355  -5.7284  -5.7239  -5.7011  -5.6789  -5.6552
    -5.6247  -5.6220  -5.6089  -5.5966  -5.5779  -5.5635  -5.5594  -5.5489
    -5.5433  -5.5379  -5.5210  -5.5131  -5.5071  -5.4953  -5.4923  -5.4899
    -5.4811  -5.4759  -5.4690  -5.4664  -5.4629  -5.4576  -5.4524  -5.4505
    -5.4468  -5.4445  -5.4376  -5.4325  -5.4205  -5.4139  -5.4037  -5.3915
    -5.3848  -5.3682  -5.3435  -5.3131  -5.2933  -5.2767  -5.2669  -5.2173
    -5.1996  -5.1818  -5.1477  -5.1365  -4.6951  -4.6015  -4.5658  -4.4505
    -4.2974  -4.2041  -4.1698  -4.0740  -4.0495  -3.9261  -3.7596  -3.7392
    -3.3433  -3.1875  -2.7466  -2.6465  -2.5783  -2.4134  -2.2941  -2.1925
    -2.0361  -1.8850  -1.7953  -1.7279  -1.6621  -1.5541  -1.5335  -1.4648
    -1.3094  -1.2726  -1.2246  -1.1984  -1.0585  -1.0139  -0.9601  -0.9360
    -0.9165  -0.8962  -0.8356  -0.8132  -0.7888  -0.7254  -0.6927  -0.5880
    -0.5427  -0.4554  -0.4306  -0.3048  -0.1758   1.3761   1.8190   1.9258
     2.0016   2.4912   3.6838   3.7947   4.0036   4.1114   4.1532   4.2630
     4.3300   4.3977   4.4896   4.5410   4.6662   4.8816   4.9587   5.0363
     5.0824   5.2287   5.3543   5.5458   5.6388   5.7550   5.8439   6.1323
     6.1754   6.2674   6.4209   6.5071   6.5245   6.6308   6.7306   6.7918

          k =-0.4000 0.2831 0.0000 ( 64088 PWs)   bands (ev):

   -84.3023 -50.6464 -50.3405 -50.3007 -12.4427 -12.2818 -12.2475 -12.1043
   -12.0582 -11.9111 -11.8166 -11.7134 -11.6764 -11.6587 -11.6546 -11.6208
   -11.5936 -11.4629 -11.3919 -11.3054  -6.0585  -6.0220  -6.0148  -5.9627
    -5.9561  -5.9457  -5.9405  -5.9300  -5.9218  -5.9036  -5.8955  -5.8868
    -5.8819  -5.8742  -5.8672  -5.8568  -5.8486  -5.8395  -5.8260  -5.8223
    -5.8049  -5.7986  -5.7922  -5.7814  -5.7707  -5.7627  -5.7573  -5.7488
    -5.7408  -5.7338  -5.7320  -5.7261  -5.7178  -5.7099  -5.7007  -5.6875
    -5.6667  -5.6515  -5.6448  -5.6304  -5.6137  -5.6050  -5.5748  -5.5629
    -5.5572  -5.5407  -5.5327  -5.5256  -5.5208  -5.5069  -5.4981  -5.4911
    -5.4829  -5.4803  -5.4766  -5.4730  -5.4652  -5.4594  -5.4531  -5.4502
    -5.4472  -5.4410  -5.4392  -5.4338  -5.4266  -5.4244  -5.4169  -5.4123
    -5.3881  -5.3615  -5.3222  -5.2729  -5.2556  -5.2193  -5.1981  -5.1914
    -5.1870  -5.1783  -5.1455  -5.1318  -4.3536  -4.2890  -4.2449  -4.1916
    -4.1590  -4.0222  -3.9858  -3.8041  -3.5791  -3.4086  -3.2170  -3.0322
    -2.9149  -2.8243  -2.7529  -2.5749  -2.5388  -2.4774  -2.3815  -2.3027
    -2.2702  -2.1392  -2.0840  -1.9804  -1.9034  -1.8320  -1.7601  -1.6854
    -1.6283  -1.5711  -1.5294  -1.4831  -1.4444  -1.4137  -1.3533  -1.2319
    -1.1763  -1.1367  -1.0956  -1.0046  -0.9205  -0.7750  -0.7275  -0.5952
    -0.5359  -0.4836  -0.3071  -0.1879  -0.0854   1.4279   1.6368   1.7137
     2.0332   2.3243   3.5636   3.8471   4.0032   4.1548   4.1838   4.3380
     4.3829   4.5527   4.6906   4.7156   4.7939   4.8770   5.0125   5.0595
     5.1352   5.3154   5.3485   5.5536   5.6778   5.7262   5.8104   5.8617
     5.9168   6.0091   6.1098   6.1571   6.2076   6.3098   6.3715   6.4385

          k =-0.4000 0.5663 0.0000 ( 64042 PWs)   bands (ev):

   -84.3022 -50.6464 -50.3405 -50.3007 -12.2176 -12.0980 -12.0725 -11.9697
   -11.9461 -11.9078 -11.8408 -11.8307 -11.8177 -11.8058 -11.7353 -11.7163
   -11.6850 -11.4998 -11.4490 -11.3338  -5.9796  -5.9717  -5.9543  -5.9358
    -5.9116  -5.8886  -5.8834  -5.8774  -5.8713  -5.8637  -5.8595  -5.8561
    -5.8519  -5.8499  -5.8451  -5.8404  -5.8365  -5.8270  -5.8238  -5.8161
    -5.8124  -5.8062  -5.8006  -5.7954  -5.7915  -5.7841  -5.7758  -5.7647
    -5.7607  -5.7531  -5.7472  -5.7415  -5.7349  -5.7231  -5.7046  -5.6887
    -5.6682  -5.6485  -5.6373  -5.6274  -5.5986  -5.5856  -5.5751  -5.5649
    -5.5594  -5.5482  -5.5423  -5.5328  -5.5257  -5.5155  -5.5036  -5.4918
    -5.4860  -5.4828  -5.4762  -5.4707  -5.4649  -5.4620  -5.4599  -5.4566
    -5.4532  -5.4492  -5.4417  -5.4320  -5.4296  -5.4220  -5.4125  -5.4087
    -5.3852  -5.3786  -5.3666  -5.3471  -5.3308  -5.3066  -5.2757  -5.2598
    -5.2289  -5.2098  -5.1881  -5.1755  -4.4897  -4.4261  -4.2548  -4.2094
    -4.0965  -4.0765  -3.9644  -3.8386  -3.6859  -3.5466  -3.5099  -3.4566
    -3.3243  -3.2934  -2.9397  -2.8250  -2.7106  -2.4939  -2.4184  -2.2565
    -2.1974  -2.1278  -2.0429  -1.8945  -1.8071  -1.7623  -1.7053  -1.6195
    -1.5543  -1.4699  -1.2723  -1.2460  -1.2220  -1.1582  -1.1192  -1.0322
    -0.9596  -0.9165  -0.8904  -0.8630  -0.8258  -0.7553  -0.7064  -0.6583
    -0.5423  -0.4582  -0.3388  -0.3287  -0.2174   1.4161   1.7075   1.8351
     2.0697   2.5447   3.9270   4.1202   4.3098   4.4155   4.4534   4.5718
     4.6392   4.7535   4.7840   4.8289   4.8667   4.9342   5.0516   5.1442
     5.2254   5.4220   5.4989   5.6187   5.7068   6.1500   6.3005   6.3779
     6.4081   6.4349   6.5704   6.5982   6.6108   6.6639   6.7270   6.7878

     the Fermi energy is     1.9912 ev

!    total energy              =   -5292.19172762 Ry
     Harris-Foulkes estimate   =   -5292.19172763 Ry
     estimated scf accuracy    <          7.6E-09 Ry

     total all-electron energy =    -72796.458550 Ry

     The total energy is the sum of the following terms:

     one-electron contribution =  -17346.40732153 Ry
     hartree contribution      =    8911.05410391 Ry
     xc contribution           =    -865.60145024 Ry
     ewald contribution        =    6356.40623926 Ry
     one-center paw contrib.   =   -2347.64394026 Ry
     smearing contrib. (-TS)   =       0.00064123 Ry

     convergence has been achieved in  10 iterations

     negative rho (up, down):  4.077E-03 0.000E+00

     Forces acting on atoms (cartesian axes, Ry/au):

     atom    1 type  1   force =     0.00003589    0.00060991   -0.00020539
     atom    2 type  1   force =    -0.00003043    0.00060795   -0.00020469
     atom    3 type  1   force =     0.00000449    0.00011119   -0.00003158
     atom    4 type  1   force =     0.00000074    0.00031038   -0.00020124
     atom    5 type  2   force =    -0.00004066   -0.00099413   -0.00053570
     atom    6 type  2   force =     0.00000248    0.00072948   -0.00029521
     atom    7 type  2   force =     0.00004657   -0.00099445   -0.00054152
     atom    8 type  2   force =     0.00000328    0.00075063   -0.00018746
     atom    9 type  1   force =    -0.00020121    0.00036655   -0.00023653
     atom   10 type  1   force =     0.00020612    0.00037899   -0.00024311
     atom   11 type  1   force =     0.00000022    0.00037142    0.00108470
     atom   12 type  1   force =     0.00001097   -0.00106080   -0.00012390
     atom   13 type  2   force =    -0.00039500   -0.00078930    0.00041947
     atom   14 type  2   force =     0.00000418    0.00016396    0.00060896
     atom   15 type  2   force =     0.00040616   -0.00080139    0.00046999
     atom   16 type  2   force =     0.00000161    0.00019996   -0.00021845
     atom   17 type  1   force =    -0.00202929   -0.00020775    0.00016147
     atom   18 type  1   force =     0.00205581   -0.00020171    0.00009797
     atom   19 type  1   force =    -0.00001507    0.00005394    0.00083601
     atom   20 type  1   force =     0.00004056    0.00018731   -0.00002529
     atom   21 type  2   force =    -0.00009982    0.00039316   -0.00016183
     atom   22 type  2   force =     0.00003790   -0.00048173   -0.00016437
     atom   23 type  2   force =     0.00009688    0.00040252   -0.00023634
     atom   24 type  2   force =     0.00008563   -0.00210794    0.00344532
     atom   25 type  1   force =    -0.00035507    0.00038198   -0.00015993
     atom   26 type  1   force =     0.00021937    0.00025955   -0.00029301
     atom   27 type  1   force =    -0.00004980    0.00030081   -0.00055268
     atom   28 type  1   force =     0.00007211    0.00074960   -0.00056997
     atom   29 type  2   force =    -0.00005361   -0.00053506   -0.00071020
     atom   30 type  2   force =     0.00003993    0.00019186   -0.00027870
     atom   31 type  2   force =    -0.00002825   -0.00042779   -0.00072022
     atom   32 type  2   force =    -0.00000162    0.00014849    0.00047676
     atom   33 type  3   force =    -0.00002804    0.00048080    0.00019457
     atom   34 type  4   force =    -0.00004301    0.00045160   -0.00089793

     Total force =     0.002468     Total SCF correction =     0.000459
     SCF correction compared to forces is large: reduce conv_thr to get better values

     bfgs converged in   9 scf cycles and   8 bfgs steps
     (criteria: energy <  1.0E-04 Ry, force <  1.0E-03 Ry/Bohr)

     End of BFGS Geometry Optimization

     Final energy   =   -5292.1917276249 Ry
Begin final coordinates

ATOMIC_POSITIONS (angstrom)
Zn       0.000000000   0.292989050   8.332766170    0   0   0
Zn       3.820347600   0.292988540   8.332764800    0   0   0
Zn       1.910173120   2.619373990   9.729554040    0   0   0
Zn       5.730522080   2.619373990   9.729554040    0   0   0
S        7.640695200   3.987710500   9.867023530    0   0   0
S        1.910173620   1.372083360   7.758043420    0   0   0
S        3.820347600   3.987711610   9.867023300    0   0   0
S        5.730521580   1.372083360   7.758043420    0   0   0
Zn       3.820347600  -0.052488200  11.806209530    0   0   0
Zn       0.000000000  -0.052487450  11.806206720    0   0   0
Zn       5.730521290   2.648261110  13.666913340    0   0   0
Zn       1.910173910   2.648261110  13.666913340    0   0   0
S        3.820347600   4.009049400  13.722667710    0   0   0
S        5.730520580   1.314949970  11.736335200    0   0   0
S        0.000000000   4.009051280  13.722666550    0   0   0
S        1.910174620   1.314949970  11.736335200    0   0   0
Zn       0.000000000  -0.050408920  15.666137970    0   0   0
Zn       3.820347600  -0.050408660  15.666139170    0   0   0
Zn       1.910908110   2.726143188  17.476807362
Zn       5.732179922   2.567705029  17.585670132
S       -0.036345064   3.999154795  17.602199626
S        1.910173860   1.310390190  15.610382310    0   0   0
S        3.859400454   3.998067974  17.600724937
S        5.730521340   1.310390190  15.610382310    0   0   0
Zn       3.833660149  -0.104790132  19.577416165
Zn      -0.005246988  -0.104551875  19.580910879
Zn       5.734160492   3.145772406  21.060824033
Zn       1.908431372   2.436311538  21.443542600
S        3.677624707   3.999350578  21.702852661
S        5.734060932   1.291244136  19.598183188
S        0.145709946   3.999330930  21.712174696
S        1.915301185   1.285461778  19.339320565
Fe       1.911310699  -0.081701255  21.292671546
H        1.893683808   0.992155367  22.440578594
End final coordinates



     Writing output data file ZnS_110.save/
 
     init_run     :     24.96s CPU     25.75s WALL (       1 calls)
     electrons    :  48520.80s CPU  54424.07s WALL (       9 calls)
     update_pot   :     60.47s CPU     67.99s WALL (       8 calls)
     forces       :    393.24s CPU    415.83s WALL (       9 calls)

     Called by init_run:
     wfcinit      :     22.02s CPU     22.55s WALL (       1 calls)
     potinit      :      1.20s CPU      1.21s WALL (       1 calls)
     hinit0       :      1.17s CPU      1.23s WALL (       1 calls)

     Called by electrons:
     c_bands      :  33752.42s CPU  37874.11s WALL (     155 calls)
     sum_band     :   7958.27s CPU   8990.38s WALL (     155 calls)
     v_of_rho     :     54.89s CPU     60.69s WALL (     156 calls)
     newd         :    319.25s CPU    410.52s WALL (     156 calls)
     PAW_pot      :    342.95s CPU    357.55s WALL (     164 calls)
     mix_rho      :   6148.66s CPU   6793.23s WALL (     155 calls)

     Called by c_bands:
     init_us_2    :    362.26s CPU    380.07s WALL (    4264 calls)
     cegterg      :  32303.07s CPU  36329.86s WALL (    2015 calls)

     Called by sum_band:
     sum_band:bec :      6.74s CPU      7.08s WALL (    2119 calls)
     addusdens    :    372.73s CPU    487.10s WALL (     155 calls)

     Called by *egterg:
     h_psi        :  25570.35s CPU  28790.30s WALL (    6461 calls)
     s_psi        :   1562.46s CPU   1635.45s WALL (    6461 calls)
     g_psi        :     40.32s CPU     42.01s WALL (    4433 calls)
     cdiaghg      :    718.59s CPU    832.14s WALL (    6240 calls)

     Called by h_psi:
     h_psi:pot    :  25502.27s CPU  28648.93s WALL (    6461 calls)
     h_psi:calbec :   2271.74s CPU   2374.81s WALL (    6461 calls)
     vloc_psi     :  21609.21s CPU  24574.54s WALL (    6461 calls)
     add_vuspsi   :   1621.12s CPU   1699.47s WALL (    6461 calls)

     General routines
     calbec       :   3636.05s CPU   3799.59s WALL (    9048 calls)
     fft          :    103.77s CPU    133.96s WALL (    1831 calls)
     ffts         :   3035.53s CPU   3440.56s WALL (  108049 calls)
     fftw         :  22685.97s CPU  26263.42s WALL ( 1950300 calls)
 
     Parallel routines
     fft_scatt_xy :   4396.40s CPU   4556.33s WALL ( 2060180 calls)
     fft_scatt_yz :  10181.59s CPU  13612.26s WALL ( 2060180 calls)
 
     PWSCF        :     13h38m CPU     15h17m WALL

 
   This run was terminated on:   6: 5: 5   5Apr2023            

=------------------------------------------------------------------------------=
   JOB DONE.
=------------------------------------------------------------------------------=
